/*--------------------------------*- C++ -*----------------------------------*\
| =========                 |                                                 |
| \\      /  F ield         | OpenFOAM: The Open Source CFD Toolbox           |
|  \\    /   O peration     | Version:  2312                                  |
|   \\  /    A nd           | Website:  www.openfoam.com                      |
|    \\/     M anipulation  |                                                 |
\*---------------------------------------------------------------------------*/
FoamFile
{
    version     2.0;
    format      ascii;
    arch        "LSB;label=32;scalar=64";
    class       volVectorField;
    location    "70";
    object      D_0;
}
// * * * * * * * * * * * * * * * * * * * * * * * * * * * * * * * * * * * * * //

dimensions      [0 1 0 0 0 0 0];

internalField   nonuniform List<vector> 
12870
(
(2.10765 0.0150488 0)
(2.10722 0.0451435 0)
(2.10636 0.0752289 0)
(2.10507 0.105299 0)
(2.10335 0.135348 0)
(2.10121 0.165369 0)
(2.09863 0.195356 0)
(2.09563 0.225303 0)
(2.0922 0.255205 0)
(2.08834 0.285054 0)
(2.08406 0.314846 0)
(2.07935 0.344573 0)
(2.07421 0.37423 0)
(2.06866 0.40381 0)
(2.06268 0.433308 0)
(2.05628 0.462718 0)
(2.04947 0.492034 0)
(2.04223 0.521249 0)
(2.03458 0.550358 0)
(2.02651 0.579354 0)
(2.01804 0.608233 0)
(2.00914 0.636987 0)
(1.99984 0.665612 0)
(1.99014 0.694101 0)
(1.98002 0.722448 0)
(1.9695 0.750648 0)
(1.95858 0.778695 0)
(1.94726 0.806583 0)
(1.93555 0.834307 0)
(1.92344 0.86186 0)
(1.91093 0.889238 0)
(1.89804 0.916435 0)
(1.88476 0.943444 0)
(1.8711 0.970262 0)
(1.85705 0.996881 0)
(1.84263 1.0233 0)
(1.82783 1.0495 0)
(1.81266 1.0755 0)
(1.79711 1.10127 0)
(1.7812 1.12682 0)
(1.76493 1.15214 0)
(1.7483 1.17723 0)
(1.73131 1.20207 0)
(1.71397 1.22667 0)
(1.69628 1.25102 0)
(1.67824 1.27511 0)
(1.65986 1.29895 0)
(1.64115 1.32252 0)
(1.62209 1.34582 0)
(1.60271 1.36884 0)
(1.583 1.39159 0)
(1.56297 1.41405 0)
(1.54262 1.43623 0)
(1.52195 1.45811 0)
(1.50097 1.47969 0)
(1.47969 1.50097 0)
(1.45811 1.52195 0)
(1.43623 1.54262 0)
(1.41405 1.56297 0)
(1.39159 1.583 0)
(1.36884 1.60271 0)
(1.34582 1.62209 0)
(1.32252 1.64115 0)
(1.29895 1.65986 0)
(1.27511 1.67824 0)
(1.25102 1.69628 0)
(1.22667 1.71397 0)
(1.20207 1.73131 0)
(1.17723 1.7483 0)
(1.15214 1.76493 0)
(1.12682 1.7812 0)
(1.10127 1.79711 0)
(1.0755 1.81266 0)
(1.0495 1.82783 0)
(1.0233 1.84263 0)
(0.996881 1.85705 0)
(0.970262 1.8711 0)
(0.943444 1.88476 0)
(0.916435 1.89804 0)
(0.889238 1.91093 0)
(0.86186 1.92344 0)
(0.834307 1.93555 0)
(0.806583 1.94726 0)
(0.778695 1.95858 0)
(0.750648 1.9695 0)
(0.722448 1.98002 0)
(0.694101 1.99014 0)
(0.665612 1.99984 0)
(0.636987 2.00914 0)
(0.608233 2.01804 0)
(0.579354 2.02651 0)
(0.550358 2.03458 0)
(0.521249 2.04223 0)
(0.492034 2.04947 0)
(0.462718 2.05628 0)
(0.433308 2.06268 0)
(0.40381 2.06866 0)
(0.37423 2.07421 0)
(0.344573 2.07935 0)
(0.314846 2.08406 0)
(0.285054 2.08834 0)
(0.255205 2.0922 0)
(0.225303 2.09563 0)
(0.195356 2.09863 0)
(0.165369 2.10121 0)
(0.135348 2.10335 0)
(0.105299 2.10507 0)
(0.0752289 2.10636 0)
(0.0451435 2.10722 0)
(0.0150488 2.10765 0)
(2.09328 0.0149462 0)
(2.09285 0.0448357 0)
(2.092 0.074716 0)
(2.09072 0.104581 0)
(2.08901 0.134425 0)
(2.08688 0.164241 0)
(2.08432 0.194024 0)
(2.08134 0.223767 0)
(2.07793 0.253465 0)
(2.0741 0.283111 0)
(2.06985 0.312699 0)
(2.06517 0.342223 0)
(2.06007 0.371678 0)
(2.05456 0.401057 0)
(2.04862 0.430354 0)
(2.04227 0.459563 0)
(2.03549 0.488679 0)
(2.02831 0.517695 0)
(2.02071 0.546605 0)
(2.0127 0.575404 0)
(2.00428 0.604086 0)
(1.99545 0.632644 0)
(1.98621 0.661074 0)
(1.97657 0.689369 0)
(1.96652 0.717523 0)
(1.95608 0.74553 0)
(1.94523 0.773386 0)
(1.93399 0.801084 0)
(1.92235 0.828619 0)
(1.91032 0.855984 0)
(1.89791 0.883176 0)
(1.8851 0.910187 0)
(1.87191 0.937012 0)
(1.85834 0.963647 0)
(1.84439 0.990084 0)
(1.83007 1.01632 0)
(1.81537 1.04235 0)
(1.8003 1.06817 0)
(1.78486 1.09376 0)
(1.76906 1.11914 0)
(1.7529 1.14429 0)
(1.73638 1.1692 0)
(1.71951 1.19388 0)
(1.70228 1.21831 0)
(1.68471 1.24249 0)
(1.6668 1.26642 0)
(1.64855 1.29009 0)
(1.62996 1.3135 0)
(1.61103 1.33664 0)
(1.59178 1.35951 0)
(1.57221 1.3821 0)
(1.55231 1.40441 0)
(1.5321 1.42644 0)
(1.51157 1.44817 0)
(1.49074 1.4696 0)
(1.4696 1.49074 0)
(1.44817 1.51157 0)
(1.42644 1.5321 0)
(1.40441 1.55231 0)
(1.3821 1.57221 0)
(1.35951 1.59178 0)
(1.33664 1.61103 0)
(1.3135 1.62996 0)
(1.29009 1.64855 0)
(1.26642 1.6668 0)
(1.24249 1.68471 0)
(1.21831 1.70228 0)
(1.19388 1.71951 0)
(1.1692 1.73638 0)
(1.14429 1.7529 0)
(1.11914 1.76906 0)
(1.09376 1.78486 0)
(1.06817 1.8003 0)
(1.04235 1.81537 0)
(1.01632 1.83007 0)
(0.990084 1.84439 0)
(0.963647 1.85834 0)
(0.937012 1.87191 0)
(0.910187 1.8851 0)
(0.883176 1.89791 0)
(0.855984 1.91032 0)
(0.828619 1.92235 0)
(0.801084 1.93399 0)
(0.773386 1.94523 0)
(0.74553 1.95608 0)
(0.717523 1.96652 0)
(0.689369 1.97657 0)
(0.661074 1.98621 0)
(0.632644 1.99545 0)
(0.604086 2.00428 0)
(0.575404 2.0127 0)
(0.546605 2.02071 0)
(0.517695 2.02831 0)
(0.488679 2.03549 0)
(0.459563 2.04227 0)
(0.430354 2.04862 0)
(0.401057 2.05456 0)
(0.371678 2.06007 0)
(0.342223 2.06517 0)
(0.312699 2.06985 0)
(0.283111 2.0741 0)
(0.253465 2.07793 0)
(0.223767 2.08134 0)
(0.194024 2.08432 0)
(0.164241 2.08688 0)
(0.134425 2.08901 0)
(0.104581 2.09072 0)
(0.074716 2.092 0)
(0.0448357 2.09285 0)
(0.0149462 2.09328 0)
(2.07944 0.0148474 0)
(2.07902 0.0445393 0)
(2.07817 0.0742221 0)
(2.0769 0.10389 0)
(2.0752 0.133536 0)
(2.07309 0.163155 0)
(2.07055 0.192741 0)
(2.06758 0.222288 0)
(2.0642 0.251789 0)
(2.06039 0.281239 0)
(2.05616 0.310632 0)
(2.05152 0.339961 0)
(2.04646 0.369221 0)
(2.04098 0.398406 0)
(2.03508 0.427509 0)
(2.02877 0.456526 0)
(2.02204 0.485449 0)
(2.0149 0.514273 0)
(2.00735 0.542992 0)
(1.99939 0.571601 0)
(1.99103 0.600093 0)
(1.98226 0.628463 0)
(1.97308 0.656704 0)
(1.9635 0.684812 0)
(1.95352 0.71278 0)
(1.94315 0.740602 0)
(1.93237 0.768274 0)
(1.9212 0.795789 0)
(1.90965 0.823142 0)
(1.8977 0.850326 0)
(1.88536 0.877338 0)
(1.87264 0.90417 0)
(1.85954 0.930819 0)
(1.84606 0.957277 0)
(1.8322 0.98354 0)
(1.81797 1.0096 0)
(1.80337 1.03546 0)
(1.7884 1.0611 0)
(1.77306 1.08653 0)
(1.75737 1.11174 0)
(1.74131 1.13672 0)
(1.7249 1.16147 0)
(1.70814 1.18598 0)
(1.69103 1.21025 0)
(1.67358 1.23428 0)
(1.65578 1.25805 0)
(1.63765 1.28157 0)
(1.61918 1.30482 0)
(1.60039 1.32781 0)
(1.58126 1.35053 0)
(1.56182 1.37297 0)
(1.54205 1.39513 0)
(1.52197 1.41701 0)
(1.50158 1.43859 0)
(1.48089 1.45989 0)
(1.45989 1.48089 0)
(1.43859 1.50158 0)
(1.41701 1.52197 0)
(1.39513 1.54205 0)
(1.37297 1.56182 0)
(1.35053 1.58126 0)
(1.32781 1.60039 0)
(1.30482 1.61918 0)
(1.28157 1.63765 0)
(1.25805 1.65578 0)
(1.23428 1.67358 0)
(1.21025 1.69103 0)
(1.18598 1.70814 0)
(1.16147 1.7249 0)
(1.13672 1.74131 0)
(1.11174 1.75737 0)
(1.08653 1.77306 0)
(1.0611 1.7884 0)
(1.03546 1.80337 0)
(1.0096 1.81797 0)
(0.98354 1.8322 0)
(0.957277 1.84606 0)
(0.930819 1.85954 0)
(0.90417 1.87264 0)
(0.877338 1.88536 0)
(0.850326 1.8977 0)
(0.823142 1.90965 0)
(0.795789 1.9212 0)
(0.768274 1.93237 0)
(0.740602 1.94315 0)
(0.71278 1.95352 0)
(0.684812 1.9635 0)
(0.656704 1.97308 0)
(0.628463 1.98226 0)
(0.600093 1.99103 0)
(0.571601 1.99939 0)
(0.542992 2.00735 0)
(0.514273 2.0149 0)
(0.485449 2.02204 0)
(0.456526 2.02877 0)
(0.427509 2.03508 0)
(0.398406 2.04098 0)
(0.369221 2.04646 0)
(0.339961 2.05152 0)
(0.310632 2.05616 0)
(0.281239 2.06039 0)
(0.251789 2.0642 0)
(0.222288 2.06758 0)
(0.192741 2.07055 0)
(0.163155 2.07309 0)
(0.133536 2.0752 0)
(0.10389 2.0769 0)
(0.0742221 2.07817 0)
(0.0445393 2.07902 0)
(0.0148474 2.07944 0)
(2.06583 0.0147502 0)
(2.06541 0.0442477 0)
(2.06456 0.0737361 0)
(2.0633 0.103209 0)
(2.06162 0.132662 0)
(2.05951 0.162087 0)
(2.05699 0.191479 0)
(2.05404 0.220832 0)
(2.05068 0.250141 0)
(2.0469 0.279398 0)
(2.0427 0.308598 0)
(2.03809 0.337735 0)
(2.03306 0.366804 0)
(2.02761 0.395797 0)
(2.02175 0.42471 0)
(2.01548 0.453536 0)
(2.0088 0.48227 0)
(2.00171 0.510905 0)
(1.99421 0.539437 0)
(1.9863 0.567858 0)
(1.97799 0.596163 0)
(1.96928 0.624347 0)
(1.96016 0.652404 0)
(1.95064 0.680327 0)
(1.94073 0.708112 0)
(1.93042 0.735753 0)
(1.91972 0.763243 0)
(1.90862 0.790578 0)
(1.89714 0.817751 0)
(1.88527 0.844758 0)
(1.87301 0.871593 0)
(1.86038 0.89825 0)
(1.84736 0.924723 0)
(1.83397 0.951008 0)
(1.8202 0.977099 0)
(1.80606 1.00299 0)
(1.79156 1.02868 0)
(1.77669 1.05416 0)
(1.76145 1.07942 0)
(1.74586 1.10446 0)
(1.72991 1.12928 0)
(1.71361 1.15387 0)
(1.69696 1.17822 0)
(1.67996 1.20233 0)
(1.66262 1.2262 0)
(1.64494 1.24981 0)
(1.62693 1.27317 0)
(1.60858 1.29628 0)
(1.58991 1.31911 0)
(1.57091 1.34168 0)
(1.55159 1.36398 0)
(1.53195 1.38599 0)
(1.51201 1.40773 0)
(1.49175 1.42917 0)
(1.47119 1.45033 0)
(1.45033 1.47119 0)
(1.42917 1.49175 0)
(1.40773 1.51201 0)
(1.38599 1.53195 0)
(1.36398 1.55159 0)
(1.34168 1.57091 0)
(1.31911 1.58991 0)
(1.29628 1.60858 0)
(1.27317 1.62693 0)
(1.24981 1.64494 0)
(1.2262 1.66262 0)
(1.20233 1.67996 0)
(1.17822 1.69696 0)
(1.15387 1.71361 0)
(1.12928 1.72991 0)
(1.10446 1.74586 0)
(1.07942 1.76145 0)
(1.05416 1.77669 0)
(1.02868 1.79156 0)
(1.00299 1.80606 0)
(0.9771 1.8202 0)
(0.951008 1.83397 0)
(0.924723 1.84736 0)
(0.89825 1.86038 0)
(0.871593 1.87301 0)
(0.844758 1.88527 0)
(0.817751 1.89714 0)
(0.790578 1.90862 0)
(0.763243 1.91972 0)
(0.735753 1.93042 0)
(0.708112 1.94073 0)
(0.680327 1.95064 0)
(0.652404 1.96016 0)
(0.624347 1.96928 0)
(0.596163 1.97799 0)
(0.567858 1.9863 0)
(0.539437 1.99421 0)
(0.510905 2.00171 0)
(0.48227 2.0088 0)
(0.453536 2.01548 0)
(0.42471 2.02175 0)
(0.395797 2.02761 0)
(0.366804 2.03306 0)
(0.337735 2.03809 0)
(0.308598 2.0427 0)
(0.279398 2.0469 0)
(0.250141 2.05068 0)
(0.220832 2.05404 0)
(0.191479 2.05699 0)
(0.162087 2.05951 0)
(0.132662 2.06162 0)
(0.103209 2.0633 0)
(0.0737361 2.06456 0)
(0.0442477 2.06541 0)
(0.0147502 2.06583 0)
(2.05259 0.0146557 0)
(2.05217 0.0439642 0)
(2.05134 0.0732637 0)
(2.05008 0.102548 0)
(2.04841 0.131812 0)
(2.04632 0.161049 0)
(2.04381 0.190253 0)
(2.04088 0.219418 0)
(2.03754 0.248538 0)
(2.03379 0.277608 0)
(2.02962 0.306621 0)
(2.02503 0.335572 0)
(2.02003 0.364454 0)
(2.01462 0.393262 0)
(2.0088 0.421989 0)
(2.00257 0.450631 0)
(1.99593 0.479181 0)
(1.98889 0.507633 0)
(1.98143 0.535981 0)
(1.97358 0.56422 0)
(1.96532 0.592344 0)
(1.95666 0.620348 0)
(1.9476 0.648225 0)
(1.93815 0.675969 0)
(1.9283 0.703576 0)
(1.91806 0.73104 0)
(1.90742 0.758354 0)
(1.8964 0.785514 0)
(1.88499 0.812513 0)
(1.87319 0.839347 0)
(1.86102 0.866009 0)
(1.84846 0.892496 0)
(1.83553 0.9188 0)
(1.82222 0.944916 0)
(1.80854 0.97084 0)
(1.79449 0.996566 0)
(1.78008 1.02209 0)
(1.7653 1.0474 0)
(1.75017 1.0725 0)
(1.73467 1.09739 0)
(1.71883 1.12204 0)
(1.70263 1.14647 0)
(1.68609 1.17067 0)
(1.6692 1.19463 0)
(1.65197 1.21834 0)
(1.6344 1.24181 0)
(1.6165 1.26502 0)
(1.59828 1.28797 0)
(1.57972 1.31066 0)
(1.56084 1.33309 0)
(1.54165 1.35524 0)
(1.52214 1.37711 0)
(1.50232 1.39871 0)
(1.48219 1.42002 0)
(1.46177 1.44104 0)
(1.44104 1.46177 0)
(1.42002 1.48219 0)
(1.39871 1.50232 0)
(1.37711 1.52214 0)
(1.35524 1.54165 0)
(1.33309 1.56084 0)
(1.31066 1.57972 0)
(1.28797 1.59828 0)
(1.26502 1.6165 0)
(1.24181 1.6344 0)
(1.21834 1.65197 0)
(1.19463 1.6692 0)
(1.17067 1.68609 0)
(1.14647 1.70263 0)
(1.12204 1.71883 0)
(1.09739 1.73467 0)
(1.0725 1.75017 0)
(1.0474 1.7653 0)
(1.02209 1.78008 0)
(0.996566 1.79449 0)
(0.97084 1.80854 0)
(0.944916 1.82222 0)
(0.9188 1.83553 0)
(0.892496 1.84846 0)
(0.866009 1.86102 0)
(0.839347 1.87319 0)
(0.812513 1.88499 0)
(0.785514 1.8964 0)
(0.758354 1.90742 0)
(0.73104 1.91806 0)
(0.703576 1.9283 0)
(0.675969 1.93815 0)
(0.648225 1.9476 0)
(0.620348 1.95666 0)
(0.592344 1.96532 0)
(0.56422 1.97358 0)
(0.535981 1.98143 0)
(0.507633 1.98889 0)
(0.479181 1.99593 0)
(0.450631 2.00257 0)
(0.421989 2.0088 0)
(0.393262 2.01462 0)
(0.364454 2.02003 0)
(0.335572 2.02503 0)
(0.306621 2.02962 0)
(0.277608 2.03379 0)
(0.248538 2.03754 0)
(0.219418 2.04088 0)
(0.190253 2.04381 0)
(0.161049 2.04632 0)
(0.131812 2.04841 0)
(0.102548 2.05008 0)
(0.0732637 2.05134 0)
(0.0439642 2.05217 0)
(0.0146557 2.05259 0)
(2.03964 0.0145632 0)
(2.03922 0.0436868 0)
(2.03839 0.0728014 0)
(2.03715 0.101901 0)
(2.03548 0.13098 0)
(2.03341 0.160032 0)
(2.03091 0.189052 0)
(2.02801 0.218033 0)
(2.02469 0.24697 0)
(2.02095 0.275856 0)
(2.01681 0.304686 0)
(2.01225 0.333454 0)
(2.00728 0.362154 0)
(2.00191 0.39078 0)
(1.99612 0.419326 0)
(1.98993 0.447787 0)
(1.98334 0.476157 0)
(1.97633 0.504429 0)
(1.96893 0.532599 0)
(1.96112 0.56066 0)
(1.95292 0.588607 0)
(1.94431 0.616433 0)
(1.93531 0.644134 0)
(1.92592 0.671704 0)
(1.91613 0.699136 0)
(1.90595 0.726426 0)
(1.89538 0.753568 0)
(1.88443 0.780557 0)
(1.87309 0.807386 0)
(1.86137 0.83405 0)
(1.84927 0.860545 0)
(1.8368 0.886863 0)
(1.82394 0.913002 0)
(1.81072 0.938953 0)
(1.79713 0.964714 0)
(1.78317 0.990278 0)
(1.76885 1.01564 0)
(1.75416 1.04079 0)
(1.73912 1.06574 0)
(1.72373 1.09046 0)
(1.70798 1.11496 0)
(1.69189 1.13924 0)
(1.67545 1.16328 0)
(1.65866 1.18709 0)
(1.64154 1.21065 0)
(1.62409 1.23397 0)
(1.6063 1.25703 0)
(1.58819 1.27984 0)
(1.56975 1.30239 0)
(1.55099 1.32467 0)
(1.53192 1.34669 0)
(1.51253 1.36842 0)
(1.49284 1.38988 0)
(1.47284 1.41106 0)
(1.45254 1.43195 0)
(1.43195 1.45254 0)
(1.41106 1.47284 0)
(1.38988 1.49284 0)
(1.36842 1.51253 0)
(1.34669 1.53192 0)
(1.32467 1.55099 0)
(1.30239 1.56975 0)
(1.27984 1.58819 0)
(1.25703 1.6063 0)
(1.23397 1.62409 0)
(1.21065 1.64154 0)
(1.18709 1.65866 0)
(1.16328 1.67545 0)
(1.13924 1.69189 0)
(1.11496 1.70798 0)
(1.09046 1.72373 0)
(1.06574 1.73912 0)
(1.04079 1.75416 0)
(1.01564 1.76885 0)
(0.990278 1.78317 0)
(0.964714 1.79713 0)
(0.938953 1.81072 0)
(0.913002 1.82394 0)
(0.886863 1.8368 0)
(0.860545 1.84927 0)
(0.83405 1.86137 0)
(0.807386 1.87309 0)
(0.780557 1.88443 0)
(0.753568 1.89538 0)
(0.726426 1.90595 0)
(0.699136 1.91613 0)
(0.671704 1.92592 0)
(0.644134 1.93531 0)
(0.616433 1.94431 0)
(0.588607 1.95292 0)
(0.56066 1.96112 0)
(0.532599 1.96893 0)
(0.504429 1.97633 0)
(0.476157 1.98334 0)
(0.447787 1.98993 0)
(0.419326 1.99612 0)
(0.39078 2.00191 0)
(0.362154 2.00728 0)
(0.333454 2.01225 0)
(0.304686 2.01681 0)
(0.275856 2.02095 0)
(0.24697 2.02469 0)
(0.218033 2.02801 0)
(0.189052 2.03091 0)
(0.160032 2.03341 0)
(0.13098 2.03548 0)
(0.101901 2.03715 0)
(0.0728014 2.03839 0)
(0.0436868 2.03922 0)
(0.0145632 2.03964 0)
(2.02701 0.0144731 0)
(2.0266 0.0434163 0)
(2.02577 0.0723507 0)
(2.02454 0.10127 0)
(2.02288 0.130169 0)
(2.02082 0.159042 0)
(2.01834 0.187882 0)
(2.01545 0.216684 0)
(2.01215 0.245441 0)
(2.00844 0.274148 0)
(2.00432 0.3028 0)
(1.99979 0.33139 0)
(1.99486 0.359912 0)
(1.98952 0.388361 0)
(1.98377 0.416731 0)
(1.97761 0.445015 0)
(1.97106 0.473209 0)
(1.9641 0.501307 0)
(1.95674 0.529302 0)
(1.94898 0.557189 0)
(1.94083 0.584963 0)
(1.93228 0.612617 0)
(1.92333 0.640147 0)
(1.914 0.667546 0)
(1.90427 0.694808 0)
(1.89415 0.72193 0)
(1.88365 0.748903 0)
(1.87277 0.775725 0)
(1.8615 0.802388 0)
(1.84985 0.828887 0)
(1.83783 0.855218 0)
(1.82543 0.881374 0)
(1.81265 0.90735 0)
(1.79951 0.933141 0)
(1.786 0.958742 0)
(1.77213 0.984147 0)
(1.7579 1.00935 0)
(1.74331 1.03435 0)
(1.72836 1.05914 0)
(1.71306 1.08371 0)
(1.69741 1.10806 0)
(1.68141 1.13219 0)
(1.66507 1.15608 0)
(1.6484 1.17974 0)
(1.63138 1.20316 0)
(1.61404 1.22633 0)
(1.59636 1.24925 0)
(1.57836 1.27192 0)
(1.56003 1.29433 0)
(1.54139 1.31647 0)
(1.52244 1.33835 0)
(1.50317 1.35995 0)
(1.4836 1.38128 0)
(1.46372 1.40232 0)
(1.44355 1.42308 0)
(1.42308 1.44355 0)
(1.40232 1.46372 0)
(1.38128 1.4836 0)
(1.35995 1.50317 0)
(1.33835 1.52244 0)
(1.31647 1.54139 0)
(1.29433 1.56003 0)
(1.27192 1.57836 0)
(1.24925 1.59636 0)
(1.22633 1.61404 0)
(1.20316 1.63138 0)
(1.17974 1.6484 0)
(1.15608 1.66507 0)
(1.13219 1.68141 0)
(1.10806 1.69741 0)
(1.08371 1.71306 0)
(1.05914 1.72836 0)
(1.03435 1.74331 0)
(1.00935 1.7579 0)
(0.984147 1.77213 0)
(0.958742 1.786 0)
(0.933141 1.79951 0)
(0.90735 1.81265 0)
(0.881374 1.82543 0)
(0.855218 1.83783 0)
(0.828887 1.84985 0)
(0.802388 1.8615 0)
(0.775725 1.87277 0)
(0.748903 1.88365 0)
(0.72193 1.89415 0)
(0.694808 1.90427 0)
(0.667546 1.914 0)
(0.640147 1.92333 0)
(0.612617 1.93228 0)
(0.584963 1.94083 0)
(0.557189 1.94898 0)
(0.529302 1.95674 0)
(0.501307 1.9641 0)
(0.473209 1.97106 0)
(0.445015 1.97761 0)
(0.416731 1.98377 0)
(0.388361 1.98952 0)
(0.359912 1.99486 0)
(0.33139 1.99979 0)
(0.3028 2.00432 0)
(0.274148 2.00844 0)
(0.245441 2.01215 0)
(0.216684 2.01545 0)
(0.187882 2.01834 0)
(0.159042 2.02082 0)
(0.130169 2.02288 0)
(0.10127 2.02454 0)
(0.0723507 2.02577 0)
(0.0434163 2.0266 0)
(0.0144731 2.02701 0)
(2.01468 0.014385 0)
(2.01427 0.0431521 0)
(2.01345 0.0719104 0)
(2.01221 0.100654 0)
(2.01057 0.129377 0)
(2.00852 0.158074 0)
(2.00606 0.186738 0)
(2.00319 0.215365 0)
(1.99991 0.243947 0)
(1.99622 0.27248 0)
(1.99213 0.300957 0)
(1.98762 0.329373 0)
(1.98272 0.357722 0)
(1.97741 0.385998 0)
(1.97169 0.414195 0)
(1.96558 0.442307 0)
(1.95906 0.470329 0)
(1.95215 0.498256 0)
(1.94483 0.526081 0)
(1.93712 0.553798 0)
(1.92902 0.581403 0)
(1.92052 0.608889 0)
(1.91163 0.636251 0)
(1.90235 0.663483 0)
(1.89268 0.69058 0)
(1.88263 0.717536 0)
(1.87219 0.744346 0)
(1.86137 0.771004 0)
(1.85017 0.797505 0)
(1.83859 0.823843 0)
(1.82664 0.850013 0)
(1.81432 0.87601 0)
(1.80162 0.901828 0)
(1.78856 0.927462 0)
(1.77514 0.952907 0)
(1.76135 0.978158 0)
(1.7472 1.00321 0)
(1.7327 1.02806 0)
(1.71784 1.05269 0)
(1.70263 1.07712 0)
(1.68708 1.10132 0)
(1.67118 1.1253 0)
(1.65494 1.14905 0)
(1.63836 1.17256 0)
(1.62145 1.19584 0)
(1.60421 1.21887 0)
(1.58664 1.24165 0)
(1.56875 1.26418 0)
(1.55054 1.28645 0)
(1.53201 1.30846 0)
(1.51317 1.33021 0)
(1.49402 1.35168 0)
(1.47457 1.37287 0)
(1.45482 1.39379 0)
(1.43476 1.41442 0)
(1.41442 1.43476 0)
(1.39379 1.45482 0)
(1.37287 1.47457 0)
(1.35168 1.49402 0)
(1.33021 1.51317 0)
(1.30846 1.53201 0)
(1.28645 1.55054 0)
(1.26418 1.56875 0)
(1.24165 1.58664 0)
(1.21887 1.60421 0)
(1.19584 1.62145 0)
(1.17256 1.63836 0)
(1.14905 1.65494 0)
(1.1253 1.67118 0)
(1.10132 1.68708 0)
(1.07712 1.70263 0)
(1.05269 1.71784 0)
(1.02806 1.7327 0)
(1.00321 1.7472 0)
(0.978158 1.76135 0)
(0.952907 1.77514 0)
(0.927462 1.78856 0)
(0.901828 1.80162 0)
(0.87601 1.81432 0)
(0.850013 1.82664 0)
(0.823843 1.83859 0)
(0.797505 1.85017 0)
(0.771004 1.86137 0)
(0.744346 1.87219 0)
(0.717536 1.88263 0)
(0.69058 1.89268 0)
(0.663483 1.90235 0)
(0.636251 1.91163 0)
(0.608889 1.92052 0)
(0.581403 1.92902 0)
(0.553798 1.93712 0)
(0.526081 1.94483 0)
(0.498256 1.95215 0)
(0.470329 1.95906 0)
(0.442307 1.96558 0)
(0.414195 1.97169 0)
(0.385998 1.97741 0)
(0.357722 1.98272 0)
(0.329373 1.98762 0)
(0.300957 1.99213 0)
(0.27248 1.99622 0)
(0.243947 1.99991 0)
(0.215365 2.00319 0)
(0.186738 2.00606 0)
(0.158074 2.00852 0)
(0.129377 2.01057 0)
(0.100654 2.01221 0)
(0.0719104 2.01345 0)
(0.0431521 2.01427 0)
(0.014385 2.01468 0)
(2.00264 0.0142991 0)
(2.00223 0.0428943 0)
(2.00142 0.0714808 0)
(2.00019 0.100053 0)
(1.99856 0.128604 0)
(1.99652 0.15713 0)
(1.99407 0.185623 0)
(1.99122 0.214078 0)
(1.98796 0.24249 0)
(1.98429 0.270852 0)
(1.98022 0.299159 0)
(1.97575 0.327405 0)
(1.97087 0.355585 0)
(1.9656 0.383692 0)
(1.95992 0.41172 0)
(1.95384 0.439665 0)
(1.94736 0.46752 0)
(1.94049 0.495279 0)
(1.93321 0.522938 0)
(1.92555 0.55049 0)
(1.91749 0.57793 0)
(1.90905 0.605252 0)
(1.90021 0.63245 0)
(1.89098 0.659519 0)
(1.88137 0.686455 0)
(1.87138 0.71325 0)
(1.861 0.739899 0)
(1.85025 0.766398 0)
(1.83912 0.79274 0)
(1.82761 0.818921 0)
(1.81573 0.844935 0)
(1.80348 0.870776 0)
(1.79086 0.89644 0)
(1.77788 0.921922 0)
(1.76453 0.947215 0)
(1.75082 0.972315 0)
(1.73676 0.997216 0)
(1.72235 1.02191 0)
(1.70758 1.0464 0)
(1.69246 1.07068 0)
(1.677 1.09474 0)
(1.6612 1.11857 0)
(1.64505 1.14218 0)
(1.62858 1.16556 0)
(1.61177 1.18869 0)
(1.59463 1.21159 0)
(1.57717 1.23423 0)
(1.55938 1.25663 0)
(1.54128 1.27877 0)
(1.52286 1.30065 0)
(1.50413 1.32226 0)
(1.4851 1.3436 0)
(1.46576 1.36467 0)
(1.44612 1.38546 0)
(1.42619 1.40597 0)
(1.40597 1.42619 0)
(1.38546 1.44612 0)
(1.36467 1.46576 0)
(1.3436 1.4851 0)
(1.32226 1.50413 0)
(1.30065 1.52286 0)
(1.27877 1.54128 0)
(1.25663 1.55938 0)
(1.23423 1.57717 0)
(1.21159 1.59463 0)
(1.18869 1.61177 0)
(1.16556 1.62858 0)
(1.14218 1.64505 0)
(1.11857 1.6612 0)
(1.09474 1.677 0)
(1.07068 1.69246 0)
(1.0464 1.70758 0)
(1.02191 1.72235 0)
(0.997216 1.73676 0)
(0.972315 1.75082 0)
(0.947215 1.76453 0)
(0.921922 1.77788 0)
(0.89644 1.79086 0)
(0.870776 1.80348 0)
(0.844935 1.81573 0)
(0.818921 1.82761 0)
(0.79274 1.83912 0)
(0.766398 1.85025 0)
(0.739899 1.861 0)
(0.71325 1.87138 0)
(0.686455 1.88137 0)
(0.659519 1.89098 0)
(0.63245 1.90021 0)
(0.605252 1.90905 0)
(0.57793 1.91749 0)
(0.55049 1.92555 0)
(0.522938 1.93321 0)
(0.495279 1.94049 0)
(0.46752 1.94736 0)
(0.439665 1.95384 0)
(0.41172 1.95992 0)
(0.383692 1.9656 0)
(0.355585 1.97087 0)
(0.327405 1.97575 0)
(0.299159 1.98022 0)
(0.270852 1.98429 0)
(0.24249 1.98796 0)
(0.214078 1.99122 0)
(0.185623 1.99407 0)
(0.15713 1.99652 0)
(0.128604 1.99856 0)
(0.100053 2.00019 0)
(0.0714808 2.00142 0)
(0.0428943 2.00223 0)
(0.0142991 2.00264 0)
(1.99089 0.0142152 0)
(1.99049 0.0426426 0)
(1.98967 0.0710614 0)
(1.98846 0.0994656 0)
(1.98683 0.12785 0)
(1.9848 0.156208 0)
(1.98237 0.184534 0)
(1.97953 0.212822 0)
(1.97629 0.241067 0)
(1.97265 0.269263 0)
(1.9686 0.297404 0)
(1.96416 0.325484 0)
(1.95931 0.353498 0)
(1.95406 0.38144 0)
(1.94842 0.409304 0)
(1.94237 0.437085 0)
(1.93593 0.464776 0)
(1.9291 0.492373 0)
(1.92187 0.519869 0)
(1.91425 0.54726 0)
(1.90624 0.574538 0)
(1.89784 0.6017 0)
(1.88906 0.628739 0)
(1.87989 0.655649 0)
(1.87033 0.682426 0)
(1.8604 0.709064 0)
(1.85008 0.735557 0)
(1.83939 0.761901 0)
(1.82832 0.788088 0)
(1.81688 0.814116 0)
(1.80507 0.839977 0)
(1.79289 0.865667 0)
(1.78035 0.89118 0)
(1.76744 0.916512 0)
(1.75418 0.941656 0)
(1.74055 0.966609 0)
(1.72657 0.991365 0)
(1.71224 1.01592 0)
(1.69756 1.04026 0)
(1.68253 1.0644 0)
(1.66716 1.08832 0)
(1.65145 1.11201 0)
(1.6354 1.13548 0)
(1.61902 1.15872 0)
(1.60231 1.18172 0)
(1.58527 1.20448 0)
(1.56791 1.22699 0)
(1.55023 1.24925 0)
(1.53223 1.27126 0)
(1.51392 1.29301 0)
(1.49531 1.3145 0)
(1.47638 1.33572 0)
(1.45716 1.35666 0)
(1.43764 1.37733 0)
(1.41782 1.39772 0)
(1.39772 1.41782 0)
(1.37733 1.43764 0)
(1.35666 1.45716 0)
(1.33572 1.47638 0)
(1.3145 1.49531 0)
(1.29301 1.51392 0)
(1.27126 1.53223 0)
(1.24925 1.55023 0)
(1.22699 1.56791 0)
(1.20448 1.58527 0)
(1.18172 1.60231 0)
(1.15872 1.61902 0)
(1.13548 1.6354 0)
(1.11201 1.65145 0)
(1.08832 1.66716 0)
(1.0644 1.68253 0)
(1.04026 1.69756 0)
(1.01592 1.71224 0)
(0.991365 1.72657 0)
(0.966609 1.74055 0)
(0.941656 1.75418 0)
(0.916512 1.76744 0)
(0.89118 1.78035 0)
(0.865667 1.79289 0)
(0.839977 1.80507 0)
(0.814116 1.81688 0)
(0.788088 1.82832 0)
(0.761901 1.83939 0)
(0.735557 1.85008 0)
(0.709064 1.8604 0)
(0.682426 1.87033 0)
(0.655649 1.87989 0)
(0.628739 1.88906 0)
(0.6017 1.89784 0)
(0.574538 1.90624 0)
(0.54726 1.91425 0)
(0.519869 1.92187 0)
(0.492373 1.9291 0)
(0.464776 1.93593 0)
(0.437085 1.94237 0)
(0.409304 1.94842 0)
(0.38144 1.95406 0)
(0.353498 1.95931 0)
(0.325484 1.96416 0)
(0.297404 1.9686 0)
(0.269263 1.97265 0)
(0.241067 1.97629 0)
(0.212822 1.97953 0)
(0.184534 1.98237 0)
(0.156208 1.9848 0)
(0.12785 1.98683 0)
(0.0994656 1.98846 0)
(0.0710614 1.98967 0)
(0.0426426 1.99049 0)
(0.0142152 1.99089 0)
(1.97942 0.0141333 0)
(1.97902 0.042397 0)
(1.97821 0.070652 0)
(1.977 0.0988927 0)
(1.97539 0.127113 0)
(1.97337 0.155308 0)
(1.97095 0.183471 0)
(1.96813 0.211596 0)
(1.96491 0.239678 0)
(1.96129 0.267712 0)
(1.95726 0.295691 0)
(1.95284 0.323609 0)
(1.94802 0.351462 0)
(1.9428 0.379243 0)
(1.93719 0.406946 0)
(1.93118 0.434567 0)
(1.92478 0.462099 0)
(1.91799 0.489537 0)
(1.9108 0.516875 0)
(1.90322 0.544107 0)
(1.89526 0.571229 0)
(1.88691 0.598234 0)
(1.87818 0.625117 0)
(1.86906 0.651872 0)
(1.85956 0.678495 0)
(1.84968 0.70498 0)
(1.83943 0.73132 0)
(1.82879 0.757512 0)
(1.81779 0.783549 0)
(1.80642 0.809426 0)
(1.79468 0.835138 0)
(1.78257 0.86068 0)
(1.7701 0.886046 0)
(1.75726 0.911232 0)
(1.74407 0.936232 0)
(1.73052 0.961041 0)
(1.71662 0.985654 0)
(1.70238 1.01007 0)
(1.68778 1.03427 0)
(1.67284 1.05827 0)
(1.65756 1.08205 0)
(1.64194 1.10561 0)
(1.62598 1.12894 0)
(1.60969 1.15204 0)
(1.59308 1.17491 0)
(1.57614 1.19754 0)
(1.55888 1.21992 0)
(1.5413 1.24206 0)
(1.52341 1.26394 0)
(1.5052 1.28557 0)
(1.48669 1.30693 0)
(1.46788 1.32802 0)
(1.44877 1.34885 0)
(1.42936 1.3694 0)
(1.40966 1.38967 0)
(1.38967 1.40966 0)
(1.3694 1.42936 0)
(1.34885 1.44877 0)
(1.32802 1.46788 0)
(1.30693 1.48669 0)
(1.28557 1.5052 0)
(1.26394 1.52341 0)
(1.24206 1.5413 0)
(1.21992 1.55888 0)
(1.19754 1.57614 0)
(1.17491 1.59308 0)
(1.15204 1.60969 0)
(1.12894 1.62598 0)
(1.10561 1.64194 0)
(1.08205 1.65756 0)
(1.05827 1.67284 0)
(1.03427 1.68778 0)
(1.01007 1.70238 0)
(0.985654 1.71662 0)
(0.961041 1.73052 0)
(0.936232 1.74407 0)
(0.911232 1.75726 0)
(0.886046 1.7701 0)
(0.86068 1.78257 0)
(0.835138 1.79468 0)
(0.809426 1.80642 0)
(0.783549 1.81779 0)
(0.757512 1.82879 0)
(0.73132 1.83943 0)
(0.70498 1.84968 0)
(0.678495 1.85956 0)
(0.651872 1.86906 0)
(0.625117 1.87818 0)
(0.598234 1.88691 0)
(0.571229 1.89526 0)
(0.544107 1.90322 0)
(0.516875 1.9108 0)
(0.489537 1.91799 0)
(0.462099 1.92478 0)
(0.434567 1.93118 0)
(0.406946 1.93719 0)
(0.379243 1.9428 0)
(0.351462 1.94802 0)
(0.323609 1.95284 0)
(0.295691 1.95726 0)
(0.267712 1.96129 0)
(0.239678 1.96491 0)
(0.211596 1.96813 0)
(0.183471 1.97095 0)
(0.155308 1.97337 0)
(0.127113 1.97539 0)
(0.0988927 1.977 0)
(0.070652 1.97821 0)
(0.042397 1.97902 0)
(0.0141333 1.97942 0)
(1.96823 0.0140534 0)
(1.96783 0.0421572 0)
(1.96702 0.0702524 0)
(1.96582 0.0983334 0)
(1.96422 0.126394 0)
(1.96221 0.154429 0)
(1.95981 0.182433 0)
(1.957 0.210399 0)
(1.9538 0.238323 0)
(1.95019 0.266198 0)
(1.94619 0.294018 0)
(1.9418 0.321779 0)
(1.937 0.349474 0)
(1.93182 0.377098 0)
(1.92623 0.404645 0)
(1.92026 0.432109 0)
(1.91389 0.459485 0)
(1.90714 0.486768 0)
(1.89999 0.513951 0)
(1.89246 0.54103 0)
(1.88454 0.567998 0)
(1.87624 0.59485 0)
(1.86755 0.621581 0)
(1.85849 0.648186 0)
(1.84904 0.674658 0)
(1.83922 0.700992 0)
(1.82902 0.727184 0)
(1.81845 0.753227 0)
(1.80751 0.779117 0)
(1.7962 0.804848 0)
(1.78453 0.830415 0)
(1.77249 0.855812 0)
(1.76008 0.881035 0)
(1.74732 0.906078 0)
(1.73421 0.930937 0)
(1.72074 0.955606 0)
(1.70692 0.980079 0)
(1.69275 1.00435 0)
(1.67823 1.02842 0)
(1.66338 1.05228 0)
(1.64818 1.07593 0)
(1.63265 1.09935 0)
(1.61678 1.12255 0)
(1.60059 1.14553 0)
(1.58407 1.16826 0)
(1.56723 1.19077 0)
(1.55006 1.21302 0)
(1.53258 1.23503 0)
(1.51479 1.25679 0)
(1.49669 1.27829 0)
(1.47828 1.29954 0)
(1.45958 1.32051 0)
(1.44057 1.34122 0)
(1.42127 1.36165 0)
(1.40168 1.38181 0)
(1.38181 1.40168 0)
(1.36165 1.42127 0)
(1.34122 1.44057 0)
(1.32051 1.45958 0)
(1.29954 1.47828 0)
(1.27829 1.49669 0)
(1.25679 1.51479 0)
(1.23503 1.53258 0)
(1.21302 1.55006 0)
(1.19077 1.56723 0)
(1.16826 1.58407 0)
(1.14553 1.60059 0)
(1.12255 1.61678 0)
(1.09935 1.63265 0)
(1.07593 1.64818 0)
(1.05228 1.66338 0)
(1.02842 1.67823 0)
(1.00435 1.69275 0)
(0.980079 1.70692 0)
(0.955606 1.72074 0)
(0.930937 1.73421 0)
(0.906078 1.74732 0)
(0.881035 1.76008 0)
(0.855812 1.77249 0)
(0.830415 1.78453 0)
(0.804848 1.7962 0)
(0.779117 1.80751 0)
(0.753227 1.81845 0)
(0.727184 1.82902 0)
(0.700992 1.83922 0)
(0.674658 1.84904 0)
(0.648186 1.85849 0)
(0.621581 1.86755 0)
(0.59485 1.87624 0)
(0.567998 1.88454 0)
(0.54103 1.89246 0)
(0.513951 1.89999 0)
(0.486768 1.90714 0)
(0.459485 1.91389 0)
(0.432109 1.92026 0)
(0.404645 1.92623 0)
(0.377098 1.93182 0)
(0.349474 1.937 0)
(0.321779 1.9418 0)
(0.294018 1.94619 0)
(0.266198 1.95019 0)
(0.238323 1.9538 0)
(0.210399 1.957 0)
(0.182433 1.95981 0)
(0.154429 1.96221 0)
(0.126394 1.96422 0)
(0.0983334 1.96582 0)
(0.0702524 1.96702 0)
(0.0421572 1.96783 0)
(0.0140534 1.96823 0)
(1.9573 0.0139753 0)
(1.9569 0.0419232 0)
(1.9561 0.0698625 0)
(1.95491 0.0977875 0)
(1.95331 0.125693 0)
(1.95132 0.153572 0)
(1.94893 0.18142 0)
(1.94614 0.209231 0)
(1.94295 0.237 0)
(1.93937 0.26472 0)
(1.93539 0.292386 0)
(1.93102 0.319993 0)
(1.92625 0.347534 0)
(1.92109 0.375005 0)
(1.91554 0.402399 0)
(1.9096 0.42971 0)
(1.90327 0.456935 0)
(1.89655 0.484066 0)
(1.88945 0.511098 0)
(1.88195 0.538026 0)
(1.87408 0.564845 0)
(1.86582 0.591548 0)
(1.85719 0.618131 0)
(1.84817 0.644588 0)
(1.83878 0.670913 0)
(1.82901 0.697101 0)
(1.81887 0.723147 0)
(1.80836 0.749046 0)
(1.79748 0.774792 0)
(1.78623 0.80038 0)
(1.77462 0.825805 0)
(1.76265 0.851062 0)
(1.75031 0.876144 0)
(1.73762 0.901049 0)
(1.72458 0.925769 0)
(1.71119 0.950301 0)
(1.69744 0.974639 0)
(1.68335 0.998778 0)
(1.66892 1.02271 0)
(1.65414 1.04644 0)
(1.63903 1.06995 0)
(1.62359 1.09325 0)
(1.60781 1.11632 0)
(1.59171 1.13917 0)
(1.57528 1.16178 0)
(1.55853 1.18416 0)
(1.54146 1.20629 0)
(1.52408 1.22818 0)
(1.50638 1.24982 0)
(1.48838 1.2712 0)
(1.47008 1.29232 0)
(1.45147 1.31318 0)
(1.43258 1.33377 0)
(1.41338 1.3541 0)
(1.3939 1.37414 0)
(1.37414 1.3939 0)
(1.3541 1.41338 0)
(1.33377 1.43258 0)
(1.31318 1.45147 0)
(1.29232 1.47008 0)
(1.2712 1.48838 0)
(1.24982 1.50638 0)
(1.22818 1.52408 0)
(1.20629 1.54146 0)
(1.18416 1.55853 0)
(1.16178 1.57528 0)
(1.13917 1.59171 0)
(1.11632 1.60781 0)
(1.09325 1.62359 0)
(1.06995 1.63903 0)
(1.04644 1.65414 0)
(1.02271 1.66892 0)
(0.998778 1.68335 0)
(0.974639 1.69744 0)
(0.950301 1.71119 0)
(0.925769 1.72458 0)
(0.901049 1.73762 0)
(0.876144 1.75031 0)
(0.851062 1.76265 0)
(0.825805 1.77462 0)
(0.80038 1.78623 0)
(0.774792 1.79748 0)
(0.749046 1.80836 0)
(0.723147 1.81887 0)
(0.697101 1.82901 0)
(0.670913 1.83878 0)
(0.644588 1.84817 0)
(0.618131 1.85719 0)
(0.591548 1.86582 0)
(0.564845 1.87408 0)
(0.538026 1.88195 0)
(0.511098 1.88945 0)
(0.484066 1.89655 0)
(0.456935 1.90327 0)
(0.42971 1.9096 0)
(0.402399 1.91554 0)
(0.375005 1.92109 0)
(0.347534 1.92625 0)
(0.319993 1.93102 0)
(0.292386 1.93539 0)