/*--------------------------------*- C++ -*----------------------------------*\
| =========                 |                                                 |
| \\      /  F ield         | OpenFOAM: The Open Source CFD Toolbox           |
|  \\    /   O peration     | Version:  2312                                  |
|   \\  /    A nd           | Website:  www.openfoam.com                      |
|    \\/     M anipulation  |                                                 |
\*---------------------------------------------------------------------------*/
FoamFile
{
    version     2.0;
    format      ascii;
    arch        "LSB;label=32;scalar=64";
    class       volSymmTensorField;
    location    "70";
    object      sigma:Transformed;
}
// * * * * * * * * * * * * * * * * * * * * * * * * * * * * * * * * * * * * * //

dimensions      [1 -1 -2 0 0 0 0];

internalField   nonuniform List<symmTensor> 
12870
(
(-6.87254e+07 -0.0568232 -1.21194e-11 1.22711e+08 -3.09526e-09 -1.20304e+07)
(-6.87254e+07 0.11745 -1.72039e-09 1.22711e+08 1.54763e-09 -1.20304e+07)
(-6.87254e+07 -0.06779 2.6018e-09 1.22711e+08 3.09526e-09 -1.20304e+07)
(-6.87254e+07 0.130007 6.05971e-12 1.22711e+08 -1.54763e-09 -1.20304e+07)
(-6.87254e+07 -0.29726 -8.69286e-10 1.22711e+08 1.54763e-09 -1.20304e+07)
(-6.87254e+07 0.128909 2.61392e-09 1.22711e+08 -3.77415e-18 -1.20304e+07)
(-6.87254e+07 -0.0545107 -8.69286e-10 1.22711e+08 -1.54763e-09 -1.20304e+07)
(-6.87254e+07 0.2024 1.75675e-09 1.22711e+08 1.54763e-09 -1.20304e+07)
(-6.87254e+07 0.054878 -5.37821e-18 1.22711e+08 3.09526e-09 -1.20304e+07)
(-6.87254e+07 0.0264034 1.74463e-09 1.22711e+08 1.54763e-09 -1.20304e+07)
(-6.87254e+07 -0.0770764 1.74463e-09 1.22711e+08 -1.54763e-09 -1.20304e+07)
(-6.87254e+07 0.117441 8.63226e-10 1.22711e+08 -6.19052e-09 -1.20304e+07)
(-6.87254e+07 -0.347111 -3.46502e-09 1.22711e+08 2.20751e-17 -1.20304e+07)
(-6.87254e+07 0.307653 -9.11704e-10 1.22711e+08 3.68666e-17 -1.20304e+07)
(-6.87254e+07 -0.21037 -1.72039e-09 1.22711e+08 -1.54763e-09 -1.20304e+07)
(-6.87254e+07 0.0738401 -1.75675e-09 1.22711e+08 4.64289e-09 -1.20304e+07)
(-6.87254e+07 -0.16346 -6.05971e-12 1.22711e+08 1.54763e-09 -1.20304e+07)
(-6.87254e+07 -0.0539479 8.75346e-10 1.22711e+08 1.25194e-18 -1.20304e+07)
(-6.87254e+07 0.0104535 8.69286e-10 1.22711e+08 -1.54763e-09 -1.20304e+07)
(-6.87254e+07 0.0169678 6.05971e-12 1.22711e+08 -1.54763e-09 -1.20304e+07)
(-6.87254e+07 0.138064 0 1.22711e+08 0 -1.20304e+07)
(-6.87254e+07 -0.202937 -8.69286e-10 1.22711e+08 1.54763e-09 -1.20304e+07)
(-6.87254e+07 0.262231 -4.21952e-18 1.22711e+08 3.09526e-09 -1.20304e+07)
(-6.87254e+07 -0.292144 8.57166e-10 1.22711e+08 -1.54763e-09 -1.20304e+07)
(-6.87254e+07 0.196661 -8.63226e-10 1.22711e+08 -3.09526e-09 -1.20304e+07)
(-6.87254e+07 -0.293024 1.76281e-09 1.22711e+08 3.09526e-09 -1.20304e+07)
(-6.87254e+07 0.0471983 1.71433e-09 1.22711e+08 -3.09526e-09 -1.20304e+07)
(-6.87254e+07 -0.0635817 -1.71433e-09 1.22711e+08 -3.09526e-09 -1.20304e+07)
(-6.87254e+07 0.128057 -8.99584e-10 1.22711e+08 4.17341e-17 -1.20304e+07)
(-6.87254e+07 -0.197046 -2.58968e-09 1.22711e+08 3.09526e-09 -1.20304e+07)
(-6.87254e+07 0.342654 1.72645e-09 1.22711e+08 6.19052e-09 -1.20304e+07)
(-6.87254e+07 -0.201798 -1.21194e-11 1.22711e+08 -3.09526e-09 -1.20304e+07)
(-6.87254e+07 0.118018 -8.57166e-10 1.22711e+08 -1.54763e-09 -1.20304e+07)
(-6.87254e+07 -0.0837961 -8.81405e-10 1.22711e+08 1.54763e-09 -1.20304e+07)
(-6.87254e+07 0.0575006 8.69286e-10 1.22711e+08 -1.54763e-09 -1.20304e+07)
(-6.87254e+07 -0.130652 -8.69286e-10 1.22711e+08 -1.54763e-09 -1.20304e+07)
(-6.87254e+07 0.035478 -1.21194e-11 1.22711e+08 -3.09526e-09 -1.20304e+07)
(-6.87254e+07 -0.0983417 -1.73857e-09 1.22711e+08 -3.09526e-09 -1.20304e+07)
(-6.87254e+07 0.013753 -3.48926e-09 1.22711e+08 3.09526e-09 -1.20304e+07)
(-6.87254e+07 0.133061 -1.75069e-09 1.22711e+08 6.19052e-09 -1.20304e+07)
(-6.87254e+07 -0.209393 1.72645e-09 1.22711e+08 -1.59878e-17 -1.20304e+07)
(-6.87254e+07 0.0211662 2.42388e-11 1.22711e+08 -5.90996e-18 -1.20304e+07)
(-6.87254e+07 0.177554 1.73857e-09 1.22711e+08 3.09526e-09 -1.20304e+07)
(-6.87254e+07 -0.0425307 -1.21194e-11 1.22711e+08 -3.09526e-09 -1.20304e+07)
(-6.87254e+07 -0.0354732 -8.51107e-10 1.22711e+08 3.39891e-17 -1.20304e+07)
(-6.87254e+07 -0.0134391 1.73857e-09 1.22711e+08 3.09526e-09 -1.20304e+07)
(-6.87254e+07 0.215077 0 1.22711e+08 0 -1.20304e+07)
(-6.87254e+07 -0.185103 8.63226e-10 1.22711e+08 -3.09526e-09 -1.20304e+07)
(-6.87254e+07 0.0896677 -1.3338e-17 1.22711e+08 -6.19052e-09 -1.20304e+07)
(-6.87254e+07 -0.188646 -2.61392e-09 1.22711e+08 -3.09526e-09 -1.20304e+07)
(-6.87254e+07 0.173431 -2.62604e-09 1.22711e+08 5.34826e-17 -1.20304e+07)
(-6.87254e+07 -0.0442356 -2.60786e-09 1.22711e+08 4.64289e-09 -1.20304e+07)
(-6.87254e+07 0.0199563 8.51107e-10 1.22711e+08 3.09526e-09 -1.20304e+07)
(-6.87254e+07 0.151834 -1.73857e-09 1.22711e+08 1.73414e-17 -1.20304e+07)
(-6.87254e+07 -0.256448 -8.75346e-10 1.22711e+08 3.09526e-09 -1.20304e+07)
(-6.87254e+07 0.329845 3.4832e-09 1.22711e+08 -1.54763e-09 -1.20304e+07)
(-6.87254e+07 -0.0810309 2.42388e-11 1.22711e+08 -4.10473e-19 -1.20304e+07)
(-6.87254e+07 -0.0819445 -3.63583e-11 1.22711e+08 -3.09526e-09 -1.20304e+07)
(-6.87254e+07 -0.121155 -2.57756e-09 1.22711e+08 -3.06795e-17 -1.20304e+07)
(-6.87254e+07 0.202096 1.71433e-09 1.22711e+08 3.09526e-09 -1.20304e+07)
(-6.87254e+07 -0.091843 -8.45047e-10 1.22711e+08 1.54763e-09 -1.20304e+07)
(-6.87254e+07 0.136267 8.26868e-10 1.22711e+08 -3.09526e-09 -1.20304e+07)
(-6.87254e+07 -0.27029 -2.5715e-09 1.22711e+08 -1.54763e-09 -1.20304e+07)
(-6.87254e+07 -0.0054037 1.72039e-09 1.22711e+08 4.64289e-09 -1.20304e+07)
(-6.87254e+07 -0.230391 8.87465e-10 1.22711e+08 5.51502e-18 -1.20304e+07)
(-6.87254e+07 0.317241 -1.21194e-11 1.22711e+08 9.12552e-18 -1.20304e+07)
(-6.87254e+07 -0.356869 8.81405e-10 1.22711e+08 -1.54763e-09 -1.20304e+07)
(-6.87254e+07 0.323353 -8.81405e-10 1.22711e+08 -1.54763e-09 -1.20304e+07)
(-6.87254e+07 -0.212489 -6.0597e-12 1.22711e+08 -4.64289e-09 -1.20304e+07)
(-6.87254e+07 0.295472 -3.46502e-09 1.22711e+08 3.09526e-09 -1.20304e+07)
(-6.87254e+07 -0.132331 8.38987e-10 1.22711e+08 3.09526e-09 -1.20304e+07)
(-6.87254e+07 -0.0139957 1.21194e-11 1.22711e+08 -3.09526e-09 -1.20304e+07)
(-6.87254e+07 -0.0445459 1.76281e-09 1.22711e+08 3.09526e-09 -1.20304e+07)
(-6.87254e+07 -0.0438175 -1.81791e-11 1.22711e+08 1.54763e-09 -1.20304e+07)
(-6.87254e+07 -0.0105078 -1.79858e-18 1.22711e+08 -3.09526e-09 -1.20304e+07)
(-6.87254e+07 -0.112725 -8.69286e-10 1.22711e+08 -1.54763e-09 -1.20304e+07)
(-6.87254e+07 0.0373535 -8.75346e-10 1.22711e+08 6.71108e-18 -1.20304e+07)
(-6.87254e+07 0.171436 6.0597e-12 1.22711e+08 1.54763e-09 -1.20304e+07)
(-6.87254e+07 -0.094273 2.61392e-09 1.22711e+08 -2.9682e-17 -1.20304e+07)
(-6.87254e+07 0.119895 1.21194e-11 1.22711e+08 -4.21294e-18 -1.20304e+07)
(-6.87254e+07 -0.116127 8.51107e-10 1.22711e+08 -3.09526e-09 -1.20304e+07)
(-6.87254e+07 0.0900067 -1.70221e-09 1.22711e+08 3.09526e-09 -1.20304e+07)
(-6.87254e+07 -0.132143 2.56544e-09 1.22711e+08 -3.32106e-17 -1.20304e+07)
(-6.87254e+07 0.106312 -2.58362e-09 1.22711e+08 -4.64289e-09 -1.20304e+07)
(-6.87254e+07 0.00685296 -1.21194e-11 1.22711e+08 3.09526e-09 -1.20304e+07)
(-6.87254e+07 -0.0942974 6.05971e-12 1.22711e+08 1.54763e-09 -1.20304e+07)
(-6.87254e+07 0.0255881 8.75346e-10 1.22711e+08 3.09526e-09 -1.20304e+07)
(-6.87254e+07 -0.0535298 8.45047e-10 1.22711e+08 -4.64289e-09 -1.20304e+07)
(-6.87254e+07 0.0704376 4.84777e-11 1.22711e+08 -3.60497e-17 -1.20304e+07)
(-6.87254e+07 0.115787 8.38987e-10 1.22711e+08 3.09526e-09 -1.20304e+07)
(-6.87254e+07 -0.122176 -8.51107e-10 1.22711e+08 1.68212e-17 -1.20304e+07)
(-6.87254e+07 0.215483 1.72645e-09 1.22711e+08 7.23518e-18 -1.20304e+07)
(-6.87254e+07 -0.109308 2.50403e-18 1.22711e+08 -6.19052e-09 -1.20304e+07)
(-6.87254e+07 0.115065 -1.71433e-09 1.22711e+08 3.09526e-09 -1.20304e+07)
(-6.87254e+07 -0.107332 -2.42388e-11 1.22711e+08 6.19052e-09 -1.20304e+07)
(-6.87254e+07 -0.0278523 3.48926e-09 1.22711e+08 -3.09526e-09 -1.20304e+07)
(-6.87254e+07 -0.0213342 -8.57166e-10 1.22711e+08 -1.54763e-09 -1.20304e+07)
(-6.87254e+07 -0.155754 5.23463e-18 1.22711e+08 3.09526e-09 -1.20304e+07)
(-6.87254e+07 0.253092 8.57166e-10 1.22711e+08 -1.54763e-09 -1.20304e+07)
(-6.87254e+07 -0.0919992 -8.75346e-10 1.22711e+08 -6.19052e-09 -1.20304e+07)
(-6.87254e+07 0.0607126 3.02985e-11 1.22711e+08 1.54763e-09 -1.20304e+07)
(-6.87254e+07 -0.139939 -8.93525e-10 1.22711e+08 4.64289e-09 -1.20304e+07)
(-6.87254e+07 0.119847 0 1.22711e+08 0 -1.20304e+07)
(-6.87254e+07 -0.0704429 -6.05971e-12 1.22711e+08 -1.54763e-09 -1.20304e+07)
(-6.87254e+07 -0.0187751 -6.05972e-12 1.22711e+08 -4.64289e-09 -1.20304e+07)
(-6.87254e+07 -0.095143 -1.72039e-09 1.22711e+08 1.54763e-09 -1.20304e+07)
(-6.87254e+07 0.212253 8.51107e-10 1.22711e+08 3.09526e-09 -1.20304e+07)
(-6.87254e+07 -0.0283966 -6.05971e-12 1.22711e+08 -4.64289e-09 -1.20304e+07)
(-6.87254e+07 -0.0506651 -1.72645e-09 1.22711e+08 -7.86891e-18 -1.20304e+07)
(-6.87254e+07 0.0338244 -1.21194e-11 1.22711e+08 3.09526e-09 -1.20304e+07)
(-6.7522e+07 -0.0475638 -8.7279e-10 1.20535e+08 8.27091e-19 -1.16856e+07)
(-6.7522e+07 0.0695374 -1.74123e-09 1.20535e+08 -3.00487e-09 -1.16856e+07)
(-6.7522e+07 -0.0715929 -6.44151e-13 1.20535e+08 9.92203e-18 -1.16856e+07)
(-6.7522e+07 0.0956473 -5.87563e-12 1.20535e+08 4.5073e-09 -1.16856e+07)
(-6.7522e+07 -0.150649 -1.76103e-09 1.20535e+08 -3.00487e-09 -1.16856e+07)
(-6.7522e+07 0.108255 8.83898e-10 1.20535e+08 -5.38853e-17 -1.16856e+07)
(-6.7522e+07 -0.055534 -2.72049e-11 1.20535e+08 2.09476e-17 -1.16856e+07)
(-6.7522e+07 0.105563 1.9156e-11 1.20535e+08 1.64715e-17 -1.16856e+07)
(-6.7522e+07 0.00824278 -8.96293e-10 1.20535e+08 3.00487e-09 -1.16856e+07)
(-6.7522e+07 0.038184 8.62568e-10 1.20535e+08 -1.50243e-09 -1.16856e+07)
(-6.7522e+07 -0.0640754 -1.60978e-11 1.20535e+08 -6.25974e-18 -1.16856e+07)
(-6.7522e+07 0.0955121 2.62207e-09 1.20535e+08 3.00487e-09 -1.16856e+07)
(-6.7522e+07 -0.211009 -1.72514e-09 1.20535e+08 3.00487e-09 -1.16856e+07)
(-6.7522e+07 0.166948 -8.76493e-10 1.20535e+08 -3.00487e-09 -1.16856e+07)
(-6.7522e+07 -0.169475 -2.57877e-09 1.20535e+08 2.46673e-17 -1.16856e+07)
(-6.7522e+07 0.0616758 -1.52912e-12 1.20535e+08 1.50243e-09 -1.16856e+07)
(-6.7522e+07 -0.0935687 -4.69468e-18 1.20535e+08 -3.00487e-09 -1.16856e+07)
(-6.7522e+07 -0.0164426 8.70617e-10 1.20535e+08 -1.50243e-09 -1.16856e+07)
(-6.7522e+07 -0.000760475 -8.80839e-10 1.20535e+08 3.55493e-18 -1.16856e+07)
(-6.7522e+07 -0.0219639 -1.74558e-09 1.20535e+08 1.07805e-17 -1.16856e+07)
(-6.7522e+07 0.0932659 5.87563e-12 1.20535e+08 1.50243e-09 -1.16856e+07)
(-6.7522e+07 -0.130195 -1.74341e-09 1.20535e+08 1.50243e-09 -1.16856e+07)
(-6.7522e+07 0.165339 8.7279e-10 1.20535e+08 -1.10222e-17 -1.16856e+07)
(-6.7522e+07 -0.196966 8.64742e-10 1.20535e+08 3.54956e-18 -1.16856e+07)
(-6.7522e+07 0.138479 -8.82368e-10 1.20535e+08 -4.5073e-09 -1.16856e+07)
(-6.7522e+07 -0.17551 -8.5951e-10 1.20535e+08 -1.50243e-09 -1.16856e+07)
(-6.7522e+07 0.0566818 8.44941e-10 1.20535e+08 3.00487e-09 -1.16856e+07)
(-6.7522e+07 -0.0779357 -3.46919e-09 1.20535e+08 1.50243e-09 -1.16856e+07)
(-6.7522e+07 0.096161 -8.70617e-10 1.20535e+08 1.50243e-09 -1.16856e+07)
(-6.7522e+07 -0.130497 1.8271e-11 1.20535e+08 -1.50243e-09 -1.16856e+07)
(-6.7522e+07 0.193611 1.74711e-09 1.20535e+08 1.50243e-09 -1.16856e+07)
(-6.7522e+07 -0.130789 1.72795e-09 1.20535e+08 1.50243e-09 -1.16856e+07)
(-6.7522e+07 0.101973 1.98001e-11 1.20535e+08 3.94557e-18 -1.16856e+07)
(-6.7522e+07 -0.066695 -9.57798e-12 1.20535e+08 -1.50243e-09 -1.16856e+07)
(-6.7522e+07 0.0435352 9.57799e-12 1.20535e+08 -1.50243e-09 -1.16856e+07)
(-6.7522e+07 -0.0788639 -3.70236e-12 1.20535e+08 1.89787e-19 -1.16856e+07)
(-6.7522e+07 0.031425 5.87563e-12 1.20535e+08 -1.50243e-09 -1.16856e+07)
(-6.7522e+07 -0.0532783 -1.71773e-09 1.20535e+08 3.00487e-09 -1.16856e+07)
(-6.7522e+07 -0.0113265 -1.72514e-09 1.20535e+08 3.00487e-09 -1.16856e+07)
(-6.7522e+07 0.0699655 4.34653e-12 1.20535e+08 -3.00487e-09 -1.16856e+07)
(-6.7522e+07 -0.0796333 3.48682e-09 1.20535e+08 -3.00487e-09 -1.16856e+07)
(-6.7522e+07 0.0295455 0 1.20535e+08 0 -1.16856e+07)
(-6.7522e+07 0.068332 1.74123e-09 1.20535e+08 3.00487e-09 -1.16856e+07)
(-6.7522e+07 -0.0148062 -1.76269e-11 1.20535e+08 1.50243e-09 -1.16856e+07)
(-6.7522e+07 0.0273863 8.04888e-12 1.20535e+08 -3.00487e-09 -1.16856e+07)
(-6.7522e+07 -0.0210045 -8.71261e-10 1.20535e+08 1.50243e-09 -1.16856e+07)
(-6.7522e+07 0.11669 1.72795e-09 1.20535e+08 1.50243e-09 -1.16856e+07)
(-6.7522e+07 -0.101127 -8.04889e-12 1.20535e+08 -3.00487e-09 -1.16856e+07)
(-6.7522e+07 0.101531 -1.73383e-09 1.20535e+08 2.31016e-17 -1.16856e+07)
(-6.7522e+07 -0.107394 1.82711e-11 1.20535e+08 1.50243e-09 -1.16856e+07)
(-6.7522e+07 0.107355 -2.59422e-09 1.20535e+08 4.54626e-17 -1.16856e+07)
(-6.7522e+07 -0.020984 -2.6001e-09 1.20535e+08 -1.50243e-09 -1.16856e+07)
(-6.7522e+07 0.00954686 -8.63212e-10 1.20535e+08 1.50243e-09 -1.16856e+07)
(-6.7522e+07 0.119432 -1.74123e-09 1.20535e+08 3.00487e-09 -1.16856e+07)
(-6.7522e+07 -0.131984 -1.54536e-11 1.20535e+08 -6.00974e-09 -1.16856e+07)
(-6.7522e+07 0.180317 1.74864e-09 1.20535e+08 -3.00487e-09 -1.16856e+07)
(-6.7522e+07 -0.0681696 -3.49116e-09 1.20535e+08 6.00974e-09 -1.16856e+07)
(-6.7522e+07 0.0204266 8.55164e-10 1.20535e+08 1.50243e-09 -1.16856e+07)
(-6.7522e+07 -0.0654395 -3.46702e-09 1.20535e+08 -3.00487e-09 -1.16856e+07)
(-6.7522e+07 0.10211 1.74123e-09 1.20535e+08 -2.67038e-17 -1.16856e+07)
(-6.7522e+07 -0.0905928 -1.73753e-09 1.20535e+08 3.00487e-09 -1.16856e+07)
(-6.7522e+07 0.0892398 2.59857e-09 1.20535e+08 -6.51959e-17 -1.16856e+07)
(-6.7522e+07 -0.153167 -2.59422e-09 1.20535e+08 -3.00487e-09 -1.16856e+07)
(-6.7522e+07 0.0520954 8.62568e-10 1.20535e+08 -1.50243e-09 -1.16856e+07)
(-6.7522e+07 -0.171202 8.76493e-10 1.20535e+08 3.00487e-09 -1.16856e+07)
(-6.7522e+07 0.192218 3.46766e-09 1.20535e+08 -9.78618e-17 -1.16856e+07)
(-6.7522e+07 -0.223453 -8.57337e-10 1.20535e+08 -2.54277e-17 -1.16856e+07)
(-6.7522e+07 0.225399 -1.54536e-11 1.20535e+08 -4.5982e-19 -1.16856e+07)
(-6.7522e+07 -0.158373 -1.72208e-09 1.20535e+08 4.02686e-17 -1.16856e+07)
(-6.7522e+07 0.178322 -2.6038e-09 1.20535e+08 1.50243e-09 -1.16856e+07)
(-6.7522e+07 -0.0823705 -8.04889e-12 1.20535e+08 -3.00487e-09 -1.16856e+07)
(-6.7522e+07 0.0296624 -8.78666e-10 1.20535e+08 -4.5073e-09 -1.16856e+07)
(-6.7522e+07 -0.0237388 -1.72642e-09 1.20535e+08 3.00487e-09 -1.16856e+07)
(-6.7522e+07 -0.0246778 1.7162e-09 1.20535e+08 4.5073e-09 -1.16856e+07)
(-6.7522e+07 0.00535158 8.78666e-10 1.20535e+08 -1.50243e-09 -1.16856e+07)
(-6.7522e+07 -0.0331914 8.0489e-12 1.20535e+08 3.71871e-18 -1.16856e+07)
(-6.7522e+07 0.011988 2.17327e-12 1.20535e+08 -1.50243e-09 -1.16856e+07)
(-6.7522e+07 0.0813933 -5.87562e-12 1.20535e+08 -4.5073e-09 -1.16856e+07)
(-6.7522e+07 -0.0622778 8.72146e-10 1.20535e+08 5.36319e-18 -1.16856e+07)
(-6.7522e+07 0.092036 1.73383e-09 1.20535e+08 3.00487e-09 -1.16856e+07)
(-6.7522e+07 -0.0759095 8.64742e-10 1.20535e+08 -6.08719e-18 -1.16856e+07)
(-6.7522e+07 0.0709779 -2.60227e-09 1.20535e+08 2.38557e-17 -1.16856e+07)
(-6.7522e+07 -0.0760704 8.54519e-10 1.20535e+08 1.50243e-09 -1.16856e+07)
(-6.7522e+07 0.0609355 1.23954e-11 1.20535e+08 -4.20781e-18 -1.16856e+07)
(-6.7522e+07 -0.005422 5.87563e-12 1.20535e+08 -1.50243e-09 -1.16856e+07)
(-6.7522e+07 -0.036964 -8.7279e-10 1.20535e+08 2.32892e-18 -1.16856e+07)
(-6.7522e+07 0.0352174 -2.17326e-12 1.20535e+08 1.50243e-09 -1.16856e+07)
(-6.7522e+07 -0.0237864 8.41239e-10 1.20535e+08 -3.00487e-09 -1.16856e+07)
(-6.7522e+07 0.0264527 3.52538e-11 1.20535e+08 -1.99184e-17 -1.16856e+07)
(-6.7522e+07 0.0732298 8.47115e-10 1.20535e+08 4.5073e-09 -1.16856e+07)
(-6.7522e+07 -0.0660885 -8.70617e-10 1.20535e+08 -1.50243e-09 -1.16856e+07)
(-6.7522e+07 0.130005 3.48094e-09 1.20535e+08 -1.50243e-09 -1.16856e+07)
(-6.7522e+07 -0.0816173 -8.7279e-10 1.20535e+08 3.16166e-18 -1.16856e+07)
(-6.7522e+07 0.0780095 -1.71773e-09 1.20535e+08 3.00487e-09 -1.16856e+07)
(-6.7522e+07 -0.0612322 8.37537e-10 1.20535e+08 -3.00487e-09 -1.16856e+07)
(-6.7522e+07 -0.0080786 1.75451e-09 1.20535e+08 -1.50243e-09 -1.16856e+07)
(-6.7522e+07 0.0122095 -9.57799e-12 1.20535e+08 4.5073e-09 -1.16856e+07)
(-6.7522e+07 -0.0916668 0 1.20535e+08 0 -1.16856e+07)
(-6.7522e+07 0.124648 3.48311e-09 1.20535e+08 -2.14754e-17 -1.16856e+07)
(-6.7522e+07 -0.0799342 -9.57799e-12 1.20535e+08 -4.5073e-09 -1.16856e+07)
(-6.7522e+07 0.0666804 -1.70445e-09 1.20535e+08 1.50243e-09 -1.16856e+07)
(-6.7522e+07 -0.0835319 8.51461e-10 1.20535e+08 4.5073e-09 -1.16856e+07)
(-6.7522e+07 0.0643987 -8.66915e-10 1.20535e+08 -1.50243e-09 -1.16856e+07)
(-6.7522e+07 -0.0531929 -8.78666e-10 1.20535e+08 -1.50243e-09 -1.16856e+07)
(-6.7522e+07 0.0268268 -8.66915e-10 1.20535e+08 -1.50243e-09 -1.16856e+07)
(-6.7522e+07 -0.0587609 -1.72948e-09 1.20535e+08 -5.97403e-18 -1.16856e+07)
(-6.7522e+07 0.0964652 8.64742e-10 1.20535e+08 -1.13496e-17 -1.16856e+07)
(-6.7522e+07 -0.0257401 0 1.20535e+08 0 -1.16856e+07)
(-6.7522e+07 -0.00606501 -1.72948e-09 1.20535e+08 -4.71948e-18 -1.16856e+07)
(-6.7522e+07 0.0236837 0 1.20535e+08 0 -1.16856e+07)
(-6.57379e+07 -0.0274944 2.19299e-12 1.18211e+08 -1.45586e-09 -1.12863e+07)
(-6.57379e+07 0.0157915 1.12774e-11 1.18211e+08 -7.14465e-18 -1.12863e+07)
(-6.57379e+07 -0.0473822 -3.43171e-09 1.18211e+08 -8.27695e-18 -1.12863e+07)
(-6.57379e+07 0.0417339 -1.70505e-09 1.18211e+08 1.45586e-09 -1.12863e+07)
(-6.57379e+07 -0.00335642 2.56822e-09 1.18211e+08 -3.24222e-18 -1.12863e+07)
(-6.57379e+07 0.055677 -1.69502e-09 1.18211e+08 -2.91171e-09 -1.12863e+07)
(-6.57379e+07 -0.0359382 -8.68814e-10 1.18211e+08 4.26812e-18 -1.12863e+07)
(-6.57379e+07 0.010533 -1.69502e-09 1.18211e+08 2.91171e-09 -1.12863e+07)
(-6.57379e+07 -0.0252908 8.51898e-10 1.18211e+08 1.45586e-09 -1.12863e+07)
(-6.57379e+07 0.0342723 1.74107e-09 1.18211e+08 5.64705e-19 -1.12863e+07)
(-6.57379e+07 -0.0315887 -1.25301e-11 1.18211e+08 -4.36757e-09 -1.12863e+07)
(-6.57379e+07 0.0464172 1.81688e-11 1.18211e+08 -2.91171e-09 -1.12863e+07)
(-6.57379e+07 -0.0501518 1.7063e-09 1.18211e+08 5.82342e-09 -1.12863e+07)
(-6.57379e+07 0.0170775 -1.6916e-11 1.18211e+08 1.45586e-09 -1.12863e+07)
(-6.57379e+07 -0.0837155 7.83167e-12 1.18211e+08 -2.91171e-09 -1.12863e+07)
(-6.57379e+07 0.0243737 1.71758e-09 1.18211e+08 -1.09064e-17 -1.12863e+07)
(-6.57379e+07 -0.0270658 8.49705e-10 1.18211e+08 -6.02094e-18 -1.12863e+07)
(-6.57379e+07 0.00720019 1.6916e-11 1.18211e+08 1.45586e-09 -1.12863e+07)
(-6.57379e+07 -0.0132137 4.38598e-12 1.18211e+08 2.91171e-09 -1.12863e+07)
(-6.57379e+07 -0.0455111 3.44831e-09 1.18211e+08 -2.91171e-09 -1.12863e+07)
(-6.57379e+07 0.0199794 2.25547e-11 1.18211e+08 1.43447e-17 -1.12863e+07)
(-6.57379e+07 -0.049177 8.46259e-10 1.18211e+08 -2.08607e-17 -1.12863e+07)
(-6.57379e+07 0.0405545 2.59203e-09 1.18211e+08 -1.45586e-09 -1.12863e+07)
(-6.57379e+07 -0.0742979 8.55343e-10 1.18211e+08 1.45586e-09 -1.12863e+07)
(-6.57379e+07 0.0475258 -8.60982e-10 1.18211e+08 5.58994e-18 -1.12863e+07)
(-6.57379e+07 -0.0454777 -1.69847e-09 1.18211e+08 -2.23742e-17 -1.12863e+07)
(-6.57379e+07 0.0396005 1.34704e-11 1.18211e+08 1.45586e-09 -1.12863e+07)
(-6.57379e+07 -0.0640859 4.38595e-12 1.18211e+08 7.3635e-18 -1.12863e+07)
(-6.57379e+07 0.0390875 8.49705e-10 1.18211e+08 -5.82342e-09 -1.12863e+07)
(-6.57379e+07 -0.0488197 8.65681e-10 1.18211e+08 -1.45586e-09 -1.12863e+07)
(-6.57379e+07 0.029989 -1.12774e-11 1.18211e+08 2.91171e-09 -1.12863e+07)
(-6.57379e+07 -0.047179 -1.56633e-11 1.18211e+08 -1.06295e-17 -1.12863e+07)
(-6.57379e+07 0.049411 8.58789e-10 1.18211e+08 1.45586e-09 -1.12863e+07)
(-6.57379e+07 -0.0402745 -1.34703e-11 1.18211e+08 1.45586e-09 -1.12863e+07)
(-6.57379e+07 0.0197486 -1.71977e-09 1.18211e+08 -1.45586e-09 -1.12863e+07)
(-6.57379e+07 -0.0212678 8.58789e-10 1.18211e+08 -1.45586e-09 -1.12863e+07)
(-6.57379e+07 0.0147802 0 1.18211e+08 0 -1.12863e+07)
(-6.57379e+07 -0.0063467 1.72196e-09 1.18211e+08 -1.1035e-17 -1.12863e+07)
(-6.57379e+07 -0.0231672 1.7063e-09 1.18211e+08 -2.10609e-17 -1.12863e+07)
(-6.57379e+07 -0.00320138 -2.69407e-11 1.18211e+08 -2.91171e-09 -1.12863e+07)
(-6.57379e+07 0.0229323 1.72886e-09 1.18211e+08 -2.97566e-17 -1.12863e+07)
(-6.57379e+07 0.0166762 -1.12774e-11 1.18211e+08 2.91171e-09 -1.12863e+07)
(-6.57379e+07 -0.0225829 1.12774e-11 1.18211e+08 2.91171e-09 -1.12863e+07)
(-6.57379e+07 0.00128847 1.69941e-09 1.18211e+08 -5.94189e-17 -1.12863e+07)
(-6.57379e+07 0.0512857 -8.4062e-10 1.18211e+08 1.45586e-09 -1.12863e+07)
(-6.57379e+07 -0.0211437 -1.03371e-11 1.18211e+08 1.94468e-17 -1.12863e+07)
(-6.57379e+07 0.0137299 1.73449e-09 1.18211e+08 -1.45586e-09 -1.12863e+07)
(-6.57379e+07 -0.0215822 -8.64428e-10 1.18211e+08 2.91171e-09 -1.12863e+07)
(-6.57379e+07 0.0668854 -6.8914e-12 1.18211e+08 -5.82342e-09 -1.12863e+07)
(-6.57379e+07 -0.0174299 -8.45006e-10 1.18211e+08 -1.45586e-09 -1.12863e+07)
(-6.57379e+07 0.0241013 8.44066e-10 1.18211e+08 4.36757e-09 -1.12863e+07)
(-6.57379e+07 -0.00253062 8.66621e-10 1.18211e+08 1.45586e-09 -1.12863e+07)
(-6.57379e+07 -0.00345999 1.00247e-11 1.18211e+08 1.45586e-09 -1.12863e+07)
(-6.57379e+07 0.0487445 -5.63868e-12 1.18211e+08 -1.45586e-09 -1.12863e+07)
(-6.57379e+07 -0.0128316 1.71413e-09 1.18211e+08 -2.91171e-09 -1.12863e+07)
(-6.57379e+07 0.0197202 -1.67811e-09 1.18211e+08 4.36757e-09 -1.12863e+07)
(-6.57379e+07 -0.0407497 -8.14411e-12 1.18211e+08 1.45586e-09 -1.12863e+07)
(-6.57379e+07 0.0726426 1.73669e-09 1.18211e+08 -2.91171e-09 -1.12863e+07)
(-6.57379e+07 -0.0178953 -8.70067e-10 1.18211e+08 -1.45586e-09 -1.12863e+07)
(-6.57379e+07 8.26797e-05 2.25547e-11 1.18211e+08 -4.98637e-17 -1.12863e+07)
(-6.57379e+07 -0.069713 8.46259e-10 1.18211e+08 -5.72634e-17 -1.12863e+07)
(-6.57379e+07 0.0222751 1.25271e-12 1.18211e+08 -1.45586e-09 -1.12863e+07)
(-6.57379e+07 -0.0372477 8.55343e-10 1.18211e+08 1.45586e-09 -1.12863e+07)
(-6.57379e+07 0.0627079 2.193e-12 1.18211e+08 -1.45586e-09 -1.12863e+07)
(-6.57379e+07 -0.0799122 -5.63868e-12 1.18211e+08 -4.36757e-09 -1.12863e+07)
(-6.57379e+07 0.0397302 1.72447e-09 1.18211e+08 2.91171e-09 -1.12863e+07)
(-6.57379e+07 -0.0691434 -1.25301e-11 1.18211e+08 4.36757e-09 -1.12863e+07)
(-6.57379e+07 0.0765551 1.72541e-09 1.18211e+08 -1.35905e-17 -1.12863e+07)
(-6.57379e+07 -0.0747514 -1.71758e-09 1.18211e+08 1.78246e-17 -1.12863e+07)
(-6.57379e+07 0.0352797 1.72541e-09 1.18211e+08 -4.09314e-17 -1.12863e+07)
(-6.57379e+07 -0.0345865 8.57536e-10 1.18211e+08 -2.30673e-17 -1.12863e+07)
(-6.57379e+07 0.0362354 -1.70286e-09 1.18211e+08 1.61195e-17 -1.12863e+07)
(-6.57379e+07 -0.00875376 -1.70755e-09 1.18211e+08 -1.45586e-09 -1.12863e+07)
(-6.57379e+07 -0.00701139 1.71758e-09 1.18211e+08 -2.91171e-09 -1.12863e+07)
(-6.57379e+07 0.00844945 8.53151e-10 1.18211e+08 -2.12492e-18 -1.12863e+07)
(-6.57379e+07 0.0188726 -8.68814e-10 1.18211e+08 9.76105e-18 -1.12863e+07)
(-6.57379e+07 -0.0161967 8.53151e-10 1.18211e+08 -8.87414e-18 -1.12863e+07)
(-6.57379e+07 -0.00114889 -1.72196e-09 1.18211e+08 1.67003e-17 -1.12863e+07)
(-6.57379e+07 -0.0199881 -1.71758e-09 1.18211e+08 -2.91171e-09 -1.12863e+07)
(-6.57379e+07 0.0389153 6.89139e-12 1.18211e+08 4.20248e-17 -1.12863e+07)
(-6.57379e+07 -0.0217579 -5.63868e-12 1.18211e+08 4.36757e-09 -1.12863e+07)
(-6.57379e+07 0.0363973 7.83167e-12 1.18211e+08 2.91171e-09 -1.12863e+07)
(-6.57379e+07 -0.0139709 -1.25301e-11 1.18211e+08 -4.36757e-09 -1.12863e+07)
(-6.57379e+07 0.00481581 8.71319e-10 1.18211e+08 -2.91171e-09 -1.12863e+07)
(-6.57379e+07 -0.0104747 -5.63868e-12 1.18211e+08 4.36757e-09 -1.12863e+07)
(-6.57379e+07 0.0145716 -1.71977e-09 1.18211e+08 1.45586e-09 -1.12863e+07)
(-6.57379e+07 0.0240175 -1.71413e-09 1.18211e+08 4.59666e-18 -1.12863e+07)
(-6.57379e+07 0.00782943 8.44066e-10 1.18211e+08 -4.36757e-09 -1.12863e+07)
(-6.57379e+07 -0.00942559 -1.68813e-09 1.18211e+08 2.19746e-17 -1.12863e+07)
(-6.57379e+07 0.0211029 8.44066e-10 1.18211e+08 4.36757e-09 -1.12863e+07)
(-6.57379e+07 -0.00815536 8.44066e-10 1.18211e+08 -4.36757e-09 -1.12863e+07)
(-6.57379e+07 0.0343517 1.81688e-11 1.18211e+08 -2.6703e-17 -1.12863e+07)
(-6.57379e+07 -0.0329299 -1.73669e-09 1.18211e+08 2.91171e-09 -1.12863e+07)
(-6.57379e+07 0.0263606 1.12774e-11 1.18211e+08 -1.53023e-17 -1.12863e+07)
(-6.57379e+07 -0.00921597 1.70286e-09 1.18211e+08 1.42164e-18 -1.12863e+07)
(-6.57379e+07 0.0045966 -1.70066e-09 1.18211e+08 -1.45586e-09 -1.12863e+07)
(-6.57379e+07 0.0248167 -8.63175e-10 1.18211e+08 1.45586e-09 -1.12863e+07)
(-6.57379e+07 -0.01842 8.38427e-10 1.18211e+08 -2.91171e-09 -1.12863e+07)
(-6.57379e+07 0.00218862 8.65681e-10 1.18211e+08 -1.45586e-09 -1.12863e+07)
(-6.57379e+07 -0.0471127 8.41873e-10 1.18211e+08 2.91171e-09 -1.12863e+07)
(-6.57379e+07 0.0451961 -1.7063e-09 1.18211e+08 7.30688e-18 -1.12863e+07)
(-6.57379e+07 -0.0225384 1.71758e-09 1.18211e+08 2.91171e-09 -1.12863e+07)
(-6.57379e+07 0.0119096 8.57536e-10 1.18211e+08 2.91171e-09 -1.12863e+07)
(-6.57379e+07 -0.0249368 8.63175e-10 1.18211e+08 -1.45586e-09 -1.12863e+07)
(-6.57379e+07 0.0452386 -1.71413e-09 1.18211e+08 -2.91171e-09 -1.12863e+07)
(-6.57379e+07 -0.0188199 5.63868e-12 1.18211e+08 -1.45586e-09 -1.12863e+07)
(-6.57379e+07 -0.00711713 -1.72196e-09 1.18211e+08 3.70378e-18 -1.12863e+07)
(-6.57379e+07 -0.0145774 0 1.18211e+08 0 -1.12863e+07)
(-6.57379e+07 0.0230617 0 1.18211e+08 0 -1.12863e+07)
(-6.57379e+07 0.00760803 0 1.18211e+08 0 -1.12863e+07)
(-6.43422e+07 -0.020044 -8.61969e-10 1.16079e+08 -3.52905e-18 -1.09438e+07)
(-6.43422e+07 0.00217425 1.089e-11 1.16079e+08 2.82604e-09 -1.09438e+07)
(-6.43422e+07 -0.033435 8.51079e-10 1.16079e+08 2.82604e-09 -1.09438e+07)
(-6.43422e+07 0.0292909 -6.44732e-12 1.16079e+08 -5.65209e-09 -1.09438e+07)
(-6.43422e+07 0.0237954 1.71061e-09 1.16079e+08 -2.82604e-09 -1.09438e+07)
(-6.43422e+07 0.038653 -1.70861e-09 1.16079e+08 5.65209e-09 -1.09438e+07)
(-6.43422e+07 -0.0306192 -6.44731e-12 1.16079e+08 -2.45864e-18 -1.09438e+07)
(-6.43422e+07 -0.0159229 1.7195e-09 1.16079e+08 -2.82604e-09 -1.09438e+07)
(-6.43422e+07 -0.0359124 -2.62226e-11 1.16079e+08 -2.82604e-09 -1.09438e+07)
(-6.43422e+07 0.0249965 8.53084e-10 1.16079e+08 1.43735e-17 -1.09438e+07)
(-6.43422e+07 -0.0200246 3.39099e-09 1.16079e+08 2.82604e-09 -1.09438e+07)
(-6.43422e+07 0.0340958 -1.69327e-09 1.16079e+08 -2.49925e-18 -1.09438e+07)
(-6.43422e+07 -0.0112036 1.089e-11 1.16079e+08 2.82604e-09 -1.09438e+07)
(-6.43422e+07 -0.00867528 -2.178e-11 1.16079e+08 2.4081e-17 -1.09438e+07)
(-6.43422e+07 -0.0523028 -8.51079e-10 1.16079e+08 -2.82604e-09 -1.09438e+07)
(-6.43422e+07 0.0152666 0 1.16079e+08 0 -1.09438e+07)
(-6.43422e+07 -0.00612994 -8.61969e-10 1.16079e+08 1.35416e-18 -1.09438e+07)
(-6.43422e+07 0.0105037 0 1.16079e+08 0 -1.09438e+07)
(-6.43422e+07 -0.0167146 1.67149e-09 1.16079e+08 -5.65209e-09 -1.09438e+07)
(-6.43422e+07 -0.0465559 1.70617e-09 1.16079e+08 -3.0505e-17 -1.09438e+07)
(-6.43422e+07 -0.00115206 -1.73039e-09 1.16079e+08 5.65209e-09 -1.09438e+07)
(-6.43422e+07 -0.0310735 -2.62226e-11 1.16079e+08 -2.82604e-09 -1.09438e+07)
(-6.43422e+07 0.00853022 -1.70216e-09 1.16079e+08 2.99485e-17 -1.09438e+07)
(-6.43422e+07 -0.0377333 -8.61969e-10 1.16079e+08 5.65209e-09 -1.09438e+07)
(-6.43422e+07 0.0244842 8.4019e-10 1.16079e+08 6.54653e-18 -1.09438e+07)
(-6.43422e+07 -0.012104 8.57527e-10 1.16079e+08 -2.82604e-09 -1.09438e+07)
(-6.43422e+07 0.0337679 8.46637e-10 1.16079e+08 -4.08947e-18 -1.09438e+07)
(-6.43422e+07 -0.0471378 1.69327e-09 1.16079e+08 -5.33573e-18 -1.09438e+07)
(-6.43422e+07 0.0213139 -8.61969e-10 1.16079e+08 1.3172e-17 -1.09438e+07)
(-6.43422e+07 -0.0292084 1.53326e-11 1.16079e+08 2.86931e-18 -1.09438e+07)
(-6.43422e+07 -0.011749 1.089e-11 1.16079e+08 2.82604e-09 -1.09438e+07)
(-6.43422e+07 -0.0266072 -6.44732e-12 1.16079e+08 6.67515e-18 -1.09438e+07)
(-6.43422e+07 0.0257621 2.178e-11 1.16079e+08 -2.73513e-17 -1.09438e+07)
(-6.43422e+07 -0.0259539 -8.57527e-10 1.16079e+08 2.82604e-09 -1.09438e+07)
(-6.43422e+07 0.0102593 8.51079e-10 1.16079e+08 -2.82604e-09 -1.09438e+07)
(-6.43422e+07 -0.00419181 1.089e-11 1.16079e+08 -2.82604e-09 -1.09438e+07)
(-6.43422e+07 0.0121501 -1.089e-11 1.16079e+08 -2.82604e-09 -1.09438e+07)
(-6.43422e+07 0.00302271 6.44731e-12 1.16079e+08 -1.06194e-17 -1.09438e+07)
(-6.43422e+07 -0.0193669 -1.70861e-09 1.16079e+08 5.65209e-09 -1.09438e+07)
(-6.43422e+07 -0.013464 -1.73373e-11 1.16079e+08 -2.82604e-09 -1.09438e+07)
(-6.43422e+07 0.0352089 -1.67594e-09 1.16079e+08 -2.82604e-09 -1.09438e+07)
(-6.43422e+07 0.0103342 -1.089e-11 1.16079e+08 2.82604e-09 -1.09438e+07)
(-6.43422e+07 -0.0372662 0 1.16079e+08 0 -1.09438e+07)
(-6.43422e+07 0.00605122 1.70416e-09 1.16079e+08 2.82604e-09 -1.09438e+07)
(-6.43422e+07 0.04599 -6.44731e-12 1.16079e+08 6.47517e-18 -1.09438e+07)
(-6.43422e+07 -0.0167337 4.25941e-09 1.16079e+08 -2.82604e-09 -1.09438e+07)
(-6.43422e+07 -0.00715455 1.089e-11 1.16079e+08 2.82604e-09 -1.09438e+07)
(-6.43422e+07 0.0039245 1.68683e-09 1.16079e+08 2.11818e-18 -1.09438e+07)
(-6.43422e+07 0.0513622 1.71505e-09 1.16079e+08 -1.2478e-17 -1.09438e+07)
(-6.43422e+07 0.00444435 -1.69972e-09 1.16079e+08 1.41433e-17 -1.09438e+07)
(-6.43422e+07 0.00672686 8.57527e-10 1.16079e+08 -2.82604e-09 -1.09438e+07)
(-6.43422e+07 -0.000899307 8.46637e-10 1.16079e+08 -1.60515e-17 -1.09438e+07)
(-6.43422e+07 -0.00637276 -4.44265e-12 1.16079e+08 2.82604e-09 -1.09438e+07)
(-6.43422e+07 0.0241816 1.68683e-09 1.16079e+08 -9.93342e-19 -1.09438e+07)
(-6.43422e+07 0.00828832 8.57527e-10 1.16079e+08 -2.82604e-09 -1.09438e+07)
(-6.43422e+07 -0.0134403 0 1.16079e+08 0 -1.09438e+07)
(-6.43422e+07 -0.0264956 3.38655e-09 1.16079e+08 -3.48037e-17 -1.09438e+07)
(-6.43422e+07 0.0700785 8.57527e-10 1.16079e+08 2.82604e-09 -1.09438e+07)
(-6.43422e+07 -0.00239788 1.68683e-09 1.16079e+08 7.83489e-18 -1.09438e+07)
(-6.43422e+07 -0.0191488 1.089e-11 1.16079e+08 -2.82604e-09 -1.09438e+07)
(-6.43422e+07 -0.0504238 1.70416e-09 1.16079e+08 2.82604e-09 -1.09438e+07)
(-6.43422e+07 0.00664631 -1.71505e-09 1.16079e+08 3.03038e-20 -1.09438e+07)