/*--------------------------------*- C++ -*----------------------------------*\
| =========                 |                                                 |
| \\      /  F ield         | OpenFOAM: The Open Source CFD Toolbox           |
|  \\    /   O peration     | Version:  2312                                  |
|   \\  /    A nd           | Website:  www.openfoam.com                      |
|    \\/     M anipulation  |                                                 |
\*---------------------------------------------------------------------------*/
FoamFile
{
    version     2.0;
    format      ascii;
    arch        "LSB;label=32;scalar=64";
    class       volVectorField;
    location    "70";
    object      U;
}
// * * * * * * * * * * * * * * * * * * * * * * * * * * * * * * * * * * * * * //

dimensions      [0 1 -1 0 0 0 0];

internalField   nonuniform List<vector> 
12870
(
(0.0662881 0.000473304 0)
(0.0662746 0.00141982 0)
(0.0662476 0.00236604 0)
(0.066207 0.00331178 0)
(0.066153 0.00425684 0)
(0.0660855 0.00520104 0)
(0.0660045 0.00614417 0)
(0.06591 0.00708606 0)
(0.0658021 0.00802649 0)
(0.0656808 0.0089653 0)
(0.065546 0.00990227 0)
(0.065398 0.0108372 0)
(0.0652365 0.01177 0)
(0.0650618 0.0127003 0)
(0.0648738 0.0136281 0)
(0.0646726 0.014553 0)
(0.0644582 0.015475 0)
(0.0642307 0.0163939 0)
(0.06399 0.0173094 0)
(0.0637363 0.0182214 0)
(0.0634696 0.0191297 0)
(0.06319 0.020034 0)
(0.0628975 0.0209343 0)
(0.0625921 0.0218303 0)
(0.062274 0.0227219 0)
(0.0619432 0.0236088 0)
(0.0615998 0.0244909 0)
(0.0612438 0.025368 0)
(0.0608753 0.02624 0)
(0.0604944 0.0271065 0)
(0.0601012 0.0279676 0)
(0.0596957 0.028823 0)
(0.059278 0.0296725 0)
(0.0588483 0.0305159 0)
(0.0584065 0.0313531 0)
(0.0579529 0.0321839 0)
(0.0574874 0.0330082 0)
(0.0570102 0.0338257 0)
(0.0565214 0.0346363 0)
(0.056021 0.0354399 0)
(0.0555092 0.0362362 0)
(0.0549861 0.0370252 0)
(0.0544518 0.0378066 0)
(0.0539064 0.0385803 0)
(0.05335 0.0393461 0)
(0.0527827 0.0401039 0)
(0.0522047 0.0408535 0)
(0.051616 0.0415948 0)
(0.0510168 0.0423276 0)
(0.0504072 0.0430518 0)
(0.0497873 0.0437672 0)
(0.0491572 0.0444737 0)
(0.0485171 0.0451711 0)
(0.0478672 0.0458593 0)
(0.0472075 0.0465381 0)
(0.0465381 0.0472075 0)
(0.0458593 0.0478672 0)
(0.0451711 0.0485171 0)
(0.0444737 0.0491572 0)
(0.0437672 0.0497873 0)
(0.0430518 0.0504072 0)
(0.0423276 0.0510168 0)
(0.0415948 0.051616 0)
(0.0408535 0.0522047 0)
(0.0401039 0.0527827 0)
(0.0393461 0.05335 0)
(0.0385803 0.0539064 0)
(0.0378066 0.0544518 0)
(0.0370252 0.0549861 0)
(0.0362362 0.0555092 0)
(0.0354399 0.056021 0)
(0.0346363 0.0565214 0)
(0.0338257 0.0570102 0)
(0.0330082 0.0574874 0)
(0.0321839 0.0579529 0)
(0.0313531 0.0584065 0)
(0.0305159 0.0588483 0)
(0.0296725 0.059278 0)
(0.028823 0.0596957 0)
(0.0279676 0.0601012 0)
(0.0271065 0.0604944 0)
(0.02624 0.0608753 0)
(0.025368 0.0612438 0)
(0.0244909 0.0615998 0)
(0.0236088 0.0619432 0)
(0.0227219 0.062274 0)
(0.0218303 0.0625921 0)
(0.0209343 0.0628975 0)
(0.020034 0.06319 0)
(0.0191297 0.0634696 0)
(0.0182214 0.0637363 0)
(0.0173094 0.06399 0)
(0.0163939 0.0642307 0)
(0.015475 0.0644582 0)
(0.014553 0.0646726 0)
(0.0136281 0.0648738 0)
(0.0127003 0.0650618 0)
(0.01177 0.0652365 0)
(0.0108372 0.065398 0)
(0.00990227 0.065546 0)
(0.0089653 0.0656808 0)
(0.00802649 0.0658021 0)
(0.00708606 0.06591 0)
(0.00614417 0.0660045 0)
(0.00520104 0.0660855 0)
(0.00425684 0.066153 0)
(0.00331178 0.066207 0)
(0.00236604 0.0662476 0)
(0.00141982 0.0662746 0)
(0.000473304 0.0662881 0)
(0.0660325 0.000471479 0)
(0.066019 0.00141434 0)
(0.0659921 0.00235691 0)
(0.0659517 0.00329901 0)
(0.0658979 0.00424043 0)
(0.0658306 0.00518098 0)
(0.0657499 0.00612048 0)
(0.0656558 0.00705873 0)
(0.0655483 0.00799554 0)
(0.0654275 0.00893073 0)
(0.0652933 0.00986409 0)
(0.0651458 0.0107954 0)
(0.064985 0.0117246 0)
(0.0648109 0.0126513 0)
(0.0646237 0.0135755 0)
(0.0644232 0.0144969 0)
(0.0642097 0.0154154 0)
(0.063983 0.0163307 0)
(0.0637433 0.0172427 0)
(0.0634906 0.0181511 0)
(0.0632249 0.0190559 0)
(0.0629463 0.0199568 0)
(0.062655 0.0208536 0)
(0.0623508 0.0217461 0)
(0.0620339 0.0226342 0)
(0.0617044 0.0235177 0)
(0.0613623 0.0243965 0)
(0.0610076 0.0252702 0)
(0.0606406 0.0261388 0)
(0.0602611 0.027002 0)
(0.0598694 0.0278598 0)
(0.0594655 0.0287118 0)
(0.0590494 0.029558 0)
(0.0586213 0.0303982 0)
(0.0581813 0.0312322 0)
(0.0577294 0.0320598 0)
(0.0572657 0.0328809 0)
(0.0567903 0.0336953 0)
(0.0563034 0.0345028 0)
(0.055805 0.0353032 0)
(0.0552952 0.0360965 0)
(0.0547741 0.0368824 0)
(0.0542419 0.0376608 0)
(0.0536985 0.0384315 0)
(0.0531443 0.0391944 0)
(0.0525792 0.0399492 0)
(0.0520034 0.040696 0)
(0.051417 0.0414344 0)
(0.0508201 0.0421644 0)
(0.0502128 0.0428858 0)
(0.0495953 0.0435984 0)
(0.0489677 0.0443022 0)
(0.0483301 0.0449969 0)
(0.0476826 0.0456824 0)
(0.0470254 0.0463586 0)
(0.0463586 0.0470254 0)
(0.0456824 0.0476826 0)
(0.0449969 0.0483301 0)
(0.0443022 0.0489677 0)
(0.0435984 0.0495953 0)
(0.0428858 0.0502128 0)
(0.0421644 0.0508201 0)
(0.0414344 0.051417 0)
(0.040696 0.0520034 0)
(0.0399492 0.0525792 0)
(0.0391944 0.0531443 0)
(0.0384315 0.0536985 0)
(0.0376608 0.0542419 0)
(0.0368824 0.0547741 0)
(0.0360965 0.0552952 0)
(0.0353032 0.055805 0)
(0.0345028 0.0563034 0)
(0.0336953 0.0567903 0)
(0.0328809 0.0572657 0)
(0.0320598 0.0577294 0)
(0.0312322 0.0581813 0)
(0.0303982 0.0586213 0)
(0.029558 0.0590494 0)
(0.0287118 0.0594655 0)
(0.0278598 0.0598694 0)
(0.027002 0.0602611 0)
(0.0261388 0.0606406 0)
(0.0252702 0.0610076 0)
(0.0243965 0.0613623 0)
(0.0235177 0.0617044 0)
(0.0226342 0.0620339 0)
(0.0217461 0.0623508 0)
(0.0208536 0.062655 0)
(0.0199568 0.0629463 0)
(0.0190559 0.0632249 0)
(0.0181511 0.0634906 0)
(0.0172427 0.0637433 0)
(0.0163307 0.063983 0)
(0.0154154 0.0642097 0)
(0.0144969 0.0644232 0)
(0.0135755 0.0646237 0)
(0.0126513 0.0648109 0)
(0.0117246 0.064985 0)
(0.0107954 0.0651458 0)
(0.00986409 0.0652933 0)
(0.00893073 0.0654275 0)
(0.00799554 0.0655483 0)
(0.00705873 0.0656558 0)
(0.00612048 0.0657499 0)
(0.00518098 0.0658306 0)
(0.00424043 0.0658979 0)
(0.00329901 0.0659517 0)
(0.00235691 0.0659921 0)
(0.00141434 0.066019 0)
(0.000471479 0.0660325 0)
(0.0657814 0.000469686 0)
(0.065768 0.00140896 0)
(0.0657411 0.00234795 0)
(0.0657009 0.00328646 0)
(0.0656473 0.0042243 0)
(0.0655803 0.00516128 0)
(0.0654999 0.0060972 0)
(0.0654061 0.00703189 0)
(0.065299 0.00796514 0)
(0.0651787 0.00889676 0)
(0.065045 0.00982657 0)
(0.064898 0.0107544 0)
(0.0647378 0.01168 0)
(0.0645644 0.0126032 0)
(0.0643779 0.0135239 0)
(0.0641782 0.0144418 0)
(0.0639655 0.0153567 0)
(0.0637396 0.0162686 0)
(0.0635008 0.0171771 0)
(0.0632491 0.0180821 0)
(0.0629844 0.0189834 0)
(0.0627069 0.0198809 0)
(0.0624167 0.0207743 0)
(0.0621137 0.0216634 0)
(0.061798 0.0225482 0)
(0.0614697 0.0234283 0)
(0.0611289 0.0243037 0)
(0.0607756 0.0251741 0)
(0.0604099 0.0260394 0)
(0.060032 0.0268993 0)
(0.0596417 0.0277538 0)
(0.0592393 0.0286026 0)
(0.0588249 0.0294456 0)
(0.0583984 0.0302826 0)
(0.05796 0.0311134 0)
(0.0575098 0.0319379 0)
(0.0570479 0.0327558 0)
(0.0565744 0.0335671 0)
(0.0560893 0.0343715 0)
(0.0555927 0.035169 0)
(0.0550849 0.0359592 0)
(0.0545658 0.0367421 0)
(0.0540356 0.0375176 0)
(0.0534943 0.0382853 0)
(0.0529422 0.0390453 0)
(0.0523792 0.0397973 0)
(0.0518056 0.0405412 0)
(0.0512214 0.0412768 0)
(0.0506268 0.042004 0)
(0.0500218 0.0427227 0)
(0.0494067 0.0434326 0)
(0.0487814 0.0441337 0)
(0.0481463 0.0448257 0)
(0.0475013 0.0455087 0)
(0.0468466 0.0461823 0)
(0.0461823 0.0468466 0)
(0.0455087 0.0475013 0)
(0.0448257 0.0481463 0)
(0.0441337 0.0487814 0)
(0.0434326 0.0494067 0)
(0.0427227 0.0500218 0)
(0.042004 0.0506268 0)
(0.0412768 0.0512214 0)
(0.0405412 0.0518056 0)
(0.0397973 0.0523792 0)
(0.0390453 0.0529422 0)
(0.0382853 0.0534943 0)
(0.0375176 0.0540356 0)
(0.0367421 0.0545658 0)
(0.0359592 0.0550849 0)
(0.035169 0.0555927 0)
(0.0343715 0.0560893 0)
(0.0335671 0.0565744 0)
(0.0327558 0.0570479 0)
(0.0319379 0.0575098 0)
(0.0311134 0.05796 0)
(0.0302826 0.0583984 0)
(0.0294456 0.0588249 0)
(0.0286026 0.0592393 0)
(0.0277538 0.0596417 0)
(0.0268993 0.060032 0)
(0.0260394 0.0604099 0)
(0.0251741 0.0607756 0)
(0.0243037 0.0611289 0)
(0.0234283 0.0614697 0)
(0.0225482 0.061798 0)
(0.0216634 0.0621137 0)
(0.0207743 0.0624167 0)
(0.0198809 0.0627069 0)
(0.0189834 0.0629844 0)
(0.0180821 0.0632491 0)
(0.0171771 0.0635008 0)
(0.0162686 0.0637396 0)
(0.0153567 0.0639655 0)
(0.0144418 0.0641782 0)
(0.0135239 0.0643779 0)
(0.0126032 0.0645644 0)
(0.01168 0.0647378 0)
(0.0107544 0.064898 0)
(0.00982657 0.065045 0)
(0.00889676 0.0651787 0)
(0.00796514 0.065299 0)
(0.00703189 0.0654061 0)
(0.0060972 0.0654999 0)
(0.00516128 0.0655803 0)
(0.0042243 0.0656473 0)
(0.00328646 0.0657009 0)
(0.00234795 0.0657411 0)
(0.00140896 0.065768 0)
(0.000469686 0.0657814 0)
(0.0655317 0.000467903 0)
(0.0655183 0.00140361 0)
(0.0654916 0.00233904 0)
(0.0654515 0.00327399 0)
(0.0653981 0.00420827 0)
(0.0653313 0.00514169 0)
(0.0652513 0.00607406 0)
(0.0651579 0.0070052 0)
(0.0650512 0.0079349 0)
(0.0649313 0.00886299 0)
(0.0647981 0.00978927 0)
(0.0646517 0.0107136 0)
(0.0644921 0.0116357 0)
(0.0643194 0.0125554 0)
(0.0641335 0.0134726 0)
(0.0639346 0.014387 0)
(0.0637227 0.0152985 0)
(0.0634977 0.0162068 0)
(0.0632598 0.0171119 0)
(0.063009 0.0180135 0)
(0.0627454 0.0189114 0)
(0.0624689 0.0198054 0)
(0.0621797 0.0206954 0)
(0.0618779 0.0215812 0)
(0.0615634 0.0224626 0)
(0.0612364 0.0233394 0)
(0.0608969 0.0242114 0)
(0.0605449 0.0250785 0)
(0.0601806 0.0259405 0)
(0.0598041 0.0267972 0)
(0.0594153 0.0276485 0)
(0.0590145 0.0284941 0)
(0.0586016 0.0293339 0)
(0.0581767 0.0301677 0)
(0.05774 0.0309953 0)
(0.0572915 0.0318167 0)
(0.0568314 0.0326315 0)
(0.0563596 0.0334397 0)
(0.0558764 0.0342411 0)
(0.0553817 0.0350355 0)
(0.0548758 0.0358227 0)
(0.0543587 0.0366027 0)
(0.0538305 0.0373752 0)
(0.0532913 0.03814 0)
(0.0527412 0.0388971 0)
(0.0521804 0.0396462 0)
(0.051609 0.0403873 0)
(0.051027 0.0411201 0)
(0.0504346 0.0418446 0)
(0.049832 0.0425605 0)
(0.0492191 0.0432677 0)
(0.0485963 0.0439662 0)
(0.0479635 0.0446556 0)
(0.047321 0.0453359 0)
(0.0466688 0.046007 0)
(0.046007 0.0466688 0)
(0.0453359 0.047321 0)
(0.0446556 0.0479635 0)
(0.0439662 0.0485963 0)
(0.0432677 0.0492191 0)
(0.0425605 0.049832 0)
(0.0418446 0.0504346 0)
(0.0411201 0.051027 0)
(0.0403873 0.051609 0)
(0.0396462 0.0521804 0)
(0.0388971 0.0527412 0)
(0.03814 0.0532913 0)
(0.0373752 0.0538305 0)
(0.0366027 0.0543587 0)
(0.0358227 0.0548758 0)
(0.0350355 0.0553817 0)
(0.0342411 0.0558764 0)
(0.0334397 0.0563596 0)
(0.0326315 0.0568314 0)
(0.0318167 0.0572915 0)
(0.0309953 0.05774 0)
(0.0301677 0.0581767 0)
(0.0293339 0.0586016 0)
(0.0284941 0.0590145 0)
(0.0276485 0.0594153 0)
(0.0267972 0.0598041 0)
(0.0259405 0.0601806 0)
(0.0250785 0.0605449 0)
(0.0242114 0.0608969 0)
(0.0233394 0.0612364 0)
(0.0224626 0.0615634 0)
(0.0215812 0.0618779 0)
(0.0206954 0.0621797 0)
(0.0198054 0.0624689 0)
(0.0189114 0.0627454 0)
(0.0180135 0.063009 0)
(0.0171119 0.0632598 0)
(0.0162068 0.0634977 0)
(0.0152985 0.0637227 0)
(0.014387 0.0639346 0)
(0.0134726 0.0641335 0)
(0.0125554 0.0643194 0)
(0.0116357 0.0644921 0)
(0.0107136 0.0646517 0)
(0.00978927 0.0647981 0)
(0.00886299 0.0649313 0)
(0.0079349 0.0650512 0)
(0.0070052 0.0651579 0)
(0.00607406 0.0652513 0)
(0.00514169 0.0653313 0)
(0.00420827 0.0653981 0)
(0.00327399 0.0654515 0)
(0.00233904 0.0654916 0)
(0.00140361 0.0655183 0)
(0.000467903 0.0655317 0)
(0.0652856 0.000466146 0)
(0.0652722 0.00139834 0)
(0.0652456 0.00233025 0)
(0.0652057 0.00326169 0)
(0.0651525 0.00419246 0)
(0.065086 0.00512238 0)
(0.0650062 0.00605125 0)
(0.0649131 0.00697888 0)
(0.0648069 0.0079051 0)
(0.0646874 0.0088297 0)
(0.0645547 0.0097525 0)
(0.0644089 0.0106733 0)
(0.0642499 0.011592 0)
(0.0640778 0.0125082 0)
(0.0638927 0.0134219 0)
(0.0636945 0.0143329 0)
(0.0634833 0.015241 0)
(0.0632592 0.016146 0)
(0.0630222 0.0170476 0)
(0.0627724 0.0179458 0)
(0.0625097 0.0188403 0)
(0.0622343 0.019731 0)
(0.0619462 0.0206177 0)
(0.0616455 0.0215001 0)
(0.0613322 0.0223782 0)
(0.0610064 0.0232517 0)
(0.0606681 0.0241205 0)
(0.0603175 0.0249843 0)
(0.0599546 0.0258431 0)
(0.0595795 0.0266966 0)
(0.0591922 0.0275446 0)
(0.0587928 0.028387 0)
(0.0583815 0.0292237 0)
(0.0579582 0.0300544 0)
(0.0575232 0.0308789 0)
(0.0570764 0.0316972 0)
(0.0566179 0.0325089 0)
(0.0561479 0.0333141 0)
(0.0556665 0.0341125 0)
(0.0551737 0.0349039 0)
(0.0546697 0.0356882 0)
(0.0541545 0.0364652 0)
(0.0536283 0.0372348 0)
(0.0530911 0.0379968 0)
(0.0525431 0.038751 0)
(0.0519844 0.0394973 0)
(0.0514151 0.0402356 0)
(0.0508353 0.0409657 0)
(0.0502452 0.0416874 0)
(0.0496448 0.0424007 0)
(0.0490343 0.0431052 0)
(0.0484137 0.043801 0)
(0.0477834 0.0444879 0)
(0.0471432 0.0451657 0)
(0.0464935 0.0458342 0)
(0.0458342 0.0464935 0)
(0.0451657 0.0471432 0)
(0.0444879 0.0477834 0)
(0.043801 0.0484137 0)
(0.0431052 0.0490343 0)
(0.0424007 0.0496448 0)
(0.0416874 0.0502452 0)
(0.0409657 0.0508353 0)
(0.0402356 0.0514151 0)
(0.0394973 0.0519844 0)
(0.038751 0.0525431 0)
(0.0379968 0.0530911 0)
(0.0372348 0.0536283 0)
(0.0364652 0.0541545 0)
(0.0356882 0.0546697 0)
(0.0349039 0.0551737 0)
(0.0341125 0.0556665 0)
(0.0333141 0.0561479 0)
(0.032509 0.0566179 0)
(0.0316972 0.0570764 0)
(0.0308789 0.0575232 0)
(0.0300544 0.0579582 0)
(0.0292237 0.0583815 0)
(0.028387 0.0587928 0)
(0.0275446 0.0591922 0)
(0.0266966 0.0595795 0)
(0.0258431 0.0599546 0)
(0.0249843 0.0603175 0)
(0.0241205 0.0606681 0)
(0.0232517 0.0610064 0)
(0.0223782 0.0613322 0)
(0.0215001 0.0616455 0)
(0.0206177 0.0619462 0)
(0.019731 0.0622343 0)
(0.0188403 0.0625097 0)
(0.0179458 0.0627724 0)
(0.0170476 0.0630222 0)
(0.016146 0.0632592 0)
(0.015241 0.0634833 0)
(0.0143329 0.0636945 0)
(0.0134219 0.0638927 0)
(0.0125082 0.0640778 0)
(0.011592 0.0642499 0)
(0.0106733 0.0644089 0)
(0.0097525 0.0645547 0)
(0.0088297 0.0646874 0)
(0.0079051 0.0648069 0)
(0.00697888 0.0649131 0)
(0.00605125 0.0650062 0)
(0.00512238 0.065086 0)
(0.00419246 0.0651525 0)
(0.00326169 0.0652057 0)
(0.00233025 0.0652456 0)
(0.00139834 0.0652722 0)
(0.000466146 0.0652856 0)
(0.0650417 0.000464405 0)
(0.0650285 0.00139312 0)
(0.0650019 0.00232155 0)
(0.0649622 0.00324951 0)
(0.0649091 0.0041768 0)
(0.0648429 0.00510324 0)
(0.0647634 0.00602865 0)
(0.0646707 0.00695282 0)
(0.0645648 0.00787558 0)
(0.0644458 0.00879672 0)
(0.0643136 0.00971608 0)
(0.0641683 0.0106335 0)
(0.0640099 0.0115487 0)
(0.0638385 0.0124615 0)
(0.063654 0.0133718 0)
(0.0634566 0.0142794 0)
(0.0632462 0.0151841 0)
(0.063023 0.0160857 0)
(0.0627868 0.0169839 0)
(0.0625379 0.0178788 0)
(0.0622762 0.01877 0)
(0.0620019 0.0196573 0)
(0.0617148 0.0205407 0)
(0.0614152 0.0214198 0)
(0.0611031 0.0222946 0)
(0.0607785 0.0231649 0)
(0.0604416 0.0240304 0)
(0.0600922 0.024891 0)
(0.0597307 0.0257466 0)
(0.059357 0.0265969 0)
(0.0589711 0.0274417 0)
(0.0585732 0.028281 0)
(0.0581634 0.0291145 0)
(0.0577418 0.0299421 0)
(0.0573083 0.0307636 0)
(0.0568632 0.0315788 0)
(0.0564065 0.0323875 0)
(0.0559382 0.0331897 0)
(0.0554586 0.0339851 0)
(0.0549677 0.0347735 0)
(0.0544655 0.0355549 0)
(0.0539522 0.036329 0)
(0.053428 0.0370957 0)
(0.0528928 0.0378549 0)
(0.0523469 0.0386063 0)
(0.0517903 0.0393498 0)
(0.0512231 0.0400854 0)
(0.0506455 0.0408127 0)
(0.0500575 0.0415317 0)
(0.0494594 0.0422423 0)
(0.0488511 0.0429442 0)
(0.0482329 0.0436374 0)
(0.0476049 0.0443217 0)
(0.0469671 0.044997 0)
(0.0463198 0.0456631 0)
(0.0456631 0.0463198 0)
(0.044997 0.0469671 0)
(0.0443217 0.0476049 0)
(0.0436374 0.0482329 0)
(0.0429442 0.0488511 0)
(0.0422423 0.0494594 0)
(0.0415317 0.0500575 0)
(0.0408127 0.0506455 0)
(0.0400854 0.0512231 0)
(0.0393498 0.0517903 0)
(0.0386063 0.0523469 0)
(0.0378549 0.0528928 0)
(0.0370957 0.053428 0)
(0.036329 0.0539522 0)
(0.0355549 0.0544655 0)
(0.0347735 0.0549677 0)
(0.0339851 0.0554586 0)
(0.0331897 0.0559382 0)
(0.0323875 0.0564065 0)
(0.0315788 0.0568632 0)
(0.0307636 0.0573083 0)
(0.0299421 0.0577418 0)
(0.0291145 0.0581634 0)
(0.028281 0.0585732 0)
(0.0274417 0.0589711 0)
(0.0265969 0.059357 0)
(0.0257466 0.0597307 0)
(0.024891 0.0600922 0)
(0.0240304 0.0604416 0)
(0.0231649 0.0607785 0)
(0.0222946 0.0611031 0)
(0.0214198 0.0614152 0)
(0.0205407 0.0617148 0)
(0.0196573 0.0620019 0)
(0.01877 0.0622762 0)
(0.0178788 0.0625379 0)
(0.0169839 0.0627868 0)
(0.0160857 0.063023 0)
(0.0151841 0.0632462 0)
(0.0142794 0.0634566 0)
(0.0133718 0.063654 0)
(0.0124615 0.0638385 0)
(0.0115487 0.0640099 0)
(0.0106335 0.0641683 0)
(0.00971608 0.0643136 0)
(0.00879672 0.0644458 0)
(0.00787558 0.0645648 0)
(0.00695282 0.0646707 0)
(0.00602865 0.0647634 0)
(0.00510324 0.0648429 0)
(0.0041768 0.0649091 0)
(0.00324951 0.0649622 0)
(0.00232155 0.0650019 0)
(0.00139312 0.0650285 0)
(0.000464405 0.0650417 0)
(0.0648011 0.000462686 0)
(0.0647879 0.00138797 0)
(0.0647614 0.00231296 0)
(0.0647218 0.00323748 0)
(0.064669 0.00416135 0)
(0.064603 0.00508436 0)
(0.0645238 0.00600634 0)
(0.0644314 0.0069271 0)
(0.0643259 0.00784644 0)
(0.0642073 0.00876418 0)
(0.0640757 0.00968013 0)
(0.0639309 0.0105941 0)
(0.0637731 0.0115059 0)
(0.0636023 0.0124154 0)
(0.0634185 0.0133223 0)
(0.0632218 0.0142266 0)
(0.0630122 0.0151279 0)
(0.0627898 0.0160261 0)
(0.0625545 0.0169211 0)
(0.0623065 0.0178126 0)
(0.0620458 0.0187005 0)
(0.0617725 0.0195846 0)
(0.0614865 0.0204647 0)
(0.061188 0.0213406 0)
(0.060877 0.0222121 0)
(0.0605537 0.0230792 0)
(0.0602179 0.0239415 0)
(0.0598699 0.0247989 0)
(0.0595097 0.0256513 0)
(0.0591373 0.0264985 0)
(0.0587529 0.0273402 0)
(0.0583565 0.0281764 0)
(0.0579482 0.0290068 0)
(0.0575281 0.0298313 0)
(0.0570963 0.0306498 0)
(0.0566528 0.0314619 0)
(0.0561978 0.0322677 0)
(0.0557313 0.0330669 0)
(0.0552534 0.0338593 0)
(0.0547643 0.0346449 0)
(0.054264 0.0354233 0)
(0.0537526 0.0361946 0)
(0.0532303 0.0369585 0)
(0.0526971 0.0377148 0)
(0.0521532 0.0384634 0)
(0.0515987 0.0392042 0)
(0.0510336 0.039937 0)
(0.0504581 0.0406617 0)
(0.0498723 0.0413781 0)
(0.0492764 0.042086 0)
(0.0486704 0.0427854 0)
(0.0480545 0.043476 0)
(0.0474288 0.0441577 0)
(0.0467934 0.0448305 0)
(0.0461485 0.0454941 0)
(0.0454941 0.0461485 0)
(0.0448305 0.0467934 0)
(0.0441577 0.0474288 0)
(0.043476 0.0480545 0)
(0.0427854 0.0486704 0)
(0.042086 0.0492764 0)
(0.0413781 0.0498723 0)
(0.0406617 0.0504581 0)
(0.039937 0.0510336 0)
(0.0392042 0.0515987 0)
(0.0384634 0.0521532 0)
(0.0377148 0.0526971 0)
(0.0369585 0.0532303 0)
(0.0361946 0.0537526 0)
(0.0354233 0.054264 0)
(0.0346449 0.0547643 0)
(0.0338593 0.0552534 0)
(0.0330669 0.0557313 0)
(0.0322677 0.0561978 0)
(0.0314619 0.0566528 0)
(0.0306498 0.0570963 0)
(0.0298313 0.0575281 0)
(0.0290068 0.0579482 0)
(0.0281764 0.0583565 0)
(0.0273402 0.0587529 0)
(0.0264985 0.0591373 0)
(0.0256513 0.0595097 0)
(0.0247989 0.0598699 0)
(0.0239415 0.0602179 0)
(0.0230792 0.0605537 0)
(0.0222121 0.060877 0)
(0.0213406 0.061188 0)
(0.0204647 0.0614865 0)
(0.0195846 0.0617725 0)
(0.0187005 0.0620458 0)
(0.0178126 0.0623065 0)
(0.0169211 0.0625545 0)
(0.0160261 0.0627898 0)
(0.0151279 0.0630122 0)
(0.0142266 0.0632218 0)
(0.0133223 0.0634185 0)
(0.0124154 0.0636023 0)
(0.0115059 0.0637731 0)
(0.0105941 0.0639309 0)
(0.00968013 0.0640757 0)
(0.00876418 0.0642073 0)
(0.00784644 0.0643259 0)
(0.0069271 0.0644314 0)
(0.00600634 0.0645238 0)
(0.00508436 0.064603 0)
(0.00416135 0.064669 0)
(0.00323748 0.0647218 0)
(0.00231296 0.0647614 0)
(0.00138797 0.0647879 0)
(0.000462686 0.0648011 0)
(0.0645632 0.000460988 0)
(0.06455 0.00138287 0)
(0.0645237 0.00230447 0)
(0.0644842 0.0032256 0)
(0.0644315 0.00414607 0)
(0.0643658 0.0050657 0)
(0.0642869 0.00598429 0)
(0.0641949 0.00690166 0)
(0.0640898 0.00781763 0)
(0.0639716 0.008732 0)
(0.0638404 0.00964459 0)
(0.0636962 0.0105552 0)
(0.0635389 0.0114637 0)
(0.0633688 0.0123698 0)
(0.0631857 0.0132734 0)
(0.0629897 0.0141743 0)
(0.0627809 0.0150724 0)
(0.0625592 0.0159673 0)
(0.0623249 0.016859 0)
(0.0620778 0.0177472 0)
(0.061818 0.0186319 0)
(0.0615457 0.0195127 0)
(0.0612608 0.0203895 0)
(0.0609634 0.0212622 0)
(0.0606535 0.0221306 0)
(0.0603313 0.0229944 0)
(0.0599968 0.0238536 0)
(0.0596501 0.0247079 0)
(0.0592912 0.0255571 0)
(0.0589202 0.0264012 0)
(0.0585372 0.0272398 0)
(0.0581423 0.0280729 0)
(0.0577355 0.0289003 0)
(0.0573169 0.0297218 0)
(0.0568866 0.0305372 0)
(0.0564448 0.0313464 0)
(0.0559914 0.0321492 0)
(0.0555266 0.0329455 0)
(0.0550505 0.033735 0)
(0.0545632 0.0345177 0)
(0.0540648 0.0352933 0)
(0.0535553 0.0360617 0)
(0.0530349 0.0368228 0)
(0.0525036 0.0375763 0)
(0.0519617 0.0383222 0)
(0.0514092 0.0390603 0)
(0.0508462 0.0397904 0)
(0.0502728 0.0405124 0)
(0.0496892 0.0412261 0)
(0.0490955 0.0419315 0)
(0.0484917 0.0426283 0)
(0.047878 0.0433164 0)
(0.0472546 0.0439956 0)
(0.0466216 0.0446659 0)
(0.045979 0.0453271 0)
(0.0453271 0.045979 0)
(0.0446659 0.0466216 0)
(0.0439956 0.0472546 0)
(0.0433164 0.047878 0)
(0.0426283 0.0484917 0)
(0.0419315 0.0490955 0)
(0.0412261 0.0496892 0)
(0.0405124 0.0502728 0)
(0.0397904 0.0508462 0)
(0.0390603 0.0514092 0)
(0.0383222 0.0519617 0)
(0.0375763 0.0525036 0)
(0.0368228 0.0530349 0)
(0.0360617 0.0535553 0)
(0.0352933 0.0540648 0)
(0.0345177 0.0545632 0)
(0.033735 0.0550505 0)
(0.0329455 0.0555266 0)
(0.0321492 0.0559914 0)
(0.0313464 0.0564448 0)
(0.0305372 0.0568866 0)
(0.0297218 0.0573169 0)
(0.0289003 0.0577355 0)
(0.0280729 0.0581423 0)
(0.0272398 0.0585372 0)
(0.0264012 0.0589202 0)
(0.0255571 0.0592912 0)
(0.0247079 0.0596501 0)
(0.0238536 0.0599968 0)
(0.0229944 0.0603313 0)
(0.0221306 0.0606535 0)
(0.0212622 0.0609634 0)
(0.0203895 0.0612608 0)
(0.0195127 0.0615457 0)
(0.0186319 0.061818 0)
(0.0177472 0.0620778 0)
(0.016859 0.0623249 0)
(0.0159673 0.0625592 0)
(0.0150724 0.0627809 0)
(0.0141743 0.0629897 0)
(0.0132734 0.0631857 0)
(0.0123698 0.0633688 0)
(0.0114637 0.0635389 0)
(0.0105552 0.0636962 0)
(0.00964459 0.0638404 0)
(0.008732 0.0639716 0)
(0.00781763 0.0640898 0)
(0.00690166 0.0641949 0)
(0.00598429 0.0642869 0)
(0.0050657 0.0643658 0)
(0.00414607 0.0644315 0)
(0.0032256 0.0644842 0)
(0.00230447 0.0645237 0)
(0.00138287 0.06455 0)
(0.000460988 0.0645632 0)
(0.0643283 0.000459311 0)
(0.0643152 0.00137784 0)
(0.064289 0.00229609 0)
(0.0642496 0.00321386 0)
(0.0641972 0.00413099 0)
(0.0641316 0.00504727 0)
(0.064053 0.00596252 0)
(0.0639614 0.00687656 0)
(0.0638566 0.00778919 0)
(0.0637389 0.00870024 0)
(0.0636082 0.00960951 0)
(0.0634645 0.0105168 0)
(0.0633078 0.011422 0)
(0.0631383 0.0123248 0)
(0.0629558 0.0132252 0)
(0.0627606 0.0141228 0)
(0.0625525 0.0150175 0)
(0.0623317 0.0159092 0)
(0.0620982 0.0167977 0)
(0.061852 0.0176827 0)
(0.0615932 0.0185641 0)
(0.0613218 0.0194417 0)
(0.0610379 0.0203154 0)
(0.0607416 0.0211849 0)
(0.0604329 0.0220501 0)
(0.0601119 0.0229108 0)
(0.0597786 0.0237668 0)
(0.0594331 0.024618 0)
(0.0590755 0.0254642 0)
(0.0587059 0.0263051 0)
(0.0583243 0.0271407 0)
(0.0579308 0.0279708 0)
(0.0575255 0.0287952 0)
(0.0571084 0.0296137 0)
(0.0566797 0.0304261 0)
(0.0562395 0.0312324 0)
(0.0557878 0.0320323 0)
(0.0553247 0.0328256 0)
(0.0548503 0.0336123 0)
(0.0543647 0.0343921 0)
(0.0538681 0.0351649 0)
(0.0533605 0.0359305 0)
(0.052842 0.0366888 0)
(0.0523127 0.0374396 0)
(0.0517727 0.0381828 0)
(0.0512222 0.0389182 0)
(0.0506613 0.0396457 0)
(0.05009 0.040365 0)
(0.0495085 0.0410762 0)
(0.0489169 0.041779 0)
(0.0483153 0.0424732 0)
(0.0477039 0.0431588 0)
(0.0470827 0.0438356 0)
(0.046452 0.0445034 0)
(0.0458118 0.0451622 0)
(0.0451622 0.0458118 0)
(0.0445034 0.046452 0)
(0.0438356 0.0470827 0)
(0.0431588 0.0477039 0)
(0.0424732 0.0483153 0)
(0.041779 0.0489169 0)
(0.0410762 0.0495085 0)
(0.040365 0.05009 0)
(0.0396457 0.0506613 0)
(0.0389182 0.0512222 0)
(0.0381828 0.0517727 0)
(0.0374396 0.0523127 0)
(0.0366888 0.052842 0)
(0.0359305 0.0533605 0)
(0.0351649 0.0538681 0)
(0.0343921 0.0543647 0)
(0.0336123 0.0548503 0)
(0.0328256 0.0553247 0)
(0.0320323 0.0557878 0)
(0.0312324 0.0562395 0)
(0.0304261 0.0566797 0)
(0.0296137 0.0571084 0)
(0.0287952 0.0575255 0)
(0.0279708 0.0579308 0)
(0.0271407 0.0583243 0)
(0.0263051 0.0587059 0)
(0.0254642 0.0590755 0)
(0.024618 0.0594331 0)
(0.0237668 0.0597786 0)
(0.0229108 0.0601119 0)
(0.0220501 0.0604329 0)
(0.0211849 0.0607416 0)
(0.0203154 0.0610379 0)
(0.0194417 0.0613218 0)
(0.0185641 0.0615932 0)
(0.0176827 0.061852 0)
(0.0167977 0.0620982 0)
(0.0159092 0.0623317 0)
(0.0150175 0.0625525 0)
(0.0141228 0.0627606 0)
(0.0132252 0.0629558 0)
(0.0123248 0.0631383 0)
(0.011422 0.0633078 0)
(0.0105168 0.0634645 0)
(0.00960951 0.0636082 0)
(0.00870024 0.0637389 0)
(0.00778919 0.0638566 0)
(0.00687656 0.0639614 0)
(0.00596252 0.064053 0)
(0.00504727 0.0641316 0)
(0.00413099 0.0641972 0)
(0.00321386 0.0642496 0)
(0.00229609 0.064289 0)
(0.00137784 0.0643152 0)
(0.000459311 0.0643283 0)
(0.0640964 0.000457655 0)
(0.0640833 0.00137287 0)
(0.0640572 0.00228781 0)
(0.064018 0.00320228 0)
(0.0639657 0.00411609 0)
(0.0639004 0.00502907 0)
(0.0638221 0.00594102 0)
(0.0637308 0.00685176 0)
(0.0636264 0.00776111 0)
(0.0635091 0.00866887 0)
(0.0633788 0.00957486 0)
(0.0632357 0.0104789 0)
(0.0630796 0.0113808 0)
(0.0629106 0.0122804 0)
(0.0627289 0.0131775 0)
(0.0625343 0.0140719 0)
(0.062327 0.0149634 0)
(0.062107 0.0158519 0)
(0.0618743 0.0167371 0)
(0.061629 0.0176189 0)
(0.0613711 0.0184972 0)
(0.0611007 0.0193716 0)
(0.0608179 0.0202421 0)
(0.0605226 0.0211085 0)
(0.060215 0.0219706 0)
(0.0598952 0.0228282 0)
(0.0595631 0.0236811 0)
(0.0592188 0.0245292 0)
(0.0588625 0.0253724 0)
(0.0584942 0.0262103 0)
(0.058114 0.0270429 0)
(0.0577219 0.02787 0)
(0.0573181 0.0286914 0)
(0.0569025 0.0295069 0)
(0.0564754 0.0303165 0)
(0.0560367 0.0311198 0)
(0.0555866 0.0319168 0)
(0.0551252 0.0327073 0)
(0.0546525 0.0334911 0)
(0.0541687 0.0342681 0)
(0.0536739 0.0350381 0)
(0.0531681 0.035801 0)
(0.0526514 0.0365565 0)
(0.0521241 0.0373047 0)
(0.0515861 0.0380452 0)
(0.0510375 0.0387779 0)
(0.0504786 0.0395027 0)
(0.0499094 0.0402195 0)
(0.04933 0.0409281 0)
(0.0487405 0.0416283 0)
(0.0481411 0.0423201 0)
(0.0475319 0.0430032 0)
(0.046913 0.0436775 0)
(0.0462845 0.044343 0)
(0.0456466 0.0449994 0)
(0.0449994 0.0456466 0)
(0.044343 0.0462845 0)
(0.0436775 0.046913 0)
(0.0430032 0.0475319 0)
(0.0423201 0.0481411 0)
(0.0416283 0.0487405 0)
(0.0409281 0.04933 0)
(0.0402195 0.0499094 0)
(0.0395027 0.0504786 0)
(0.0387779 0.0510375 0)
(0.0380452 0.0515861 0)
(0.0373047 0.0521241 0)
(0.0365565 0.0526514 0)
(0.035801 0.0531681 0)
(0.0350381 0.0536739 0)
(0.0342681 0.0541687 0)
(0.0334911 0.0546525 0)
(0.0327073 0.0551252 0)
(0.0319168 0.0555866 0)
(0.0311198 0.0560367 0)
(0.0303165 0.0564754 0)
(0.0295069 0.0569025 0)
(0.0286914 0.0573181 0)
(0.02787 0.0577219 0)
(0.0270429 0.058114 0)
(0.0262103 0.0584942 0)
(0.0253724 0.0588625 0)
(0.0245292 0.0592188 0)
(0.0236811 0.0595631 0)
(0.0228282 0.0598952 0)
(0.0219706 0.060215 0)
(0.0211085 0.0605226 0)
(0.0202421 0.0608179 0)
(0.0193716 0.0611007 0)
(0.0184972 0.0613711 0)
(0.0176189 0.061629 0)
(0.0167371 0.0618743 0)
(0.0158519 0.062107 0)
(0.0149634 0.062327 0)
(0.0140719 0.0625343 0)
(0.0131775 0.0627289 0)
(0.0122804 0.0629106 0)
(0.0113808 0.0630796 0)
(0.0104789 0.0632357 0)
(0.00957486 0.0633788 0)
(0.00866887 0.0635091 0)
(0.00776111 0.0636264 0)
(0.00685176 0.0637308 0)
(0.00594102 0.0638221 0)
(0.00502907 0.0639004 0)
(0.00411609 0.0639657 0)
(0.00320228 0.064018 0)
(0.00228781 0.0640572 0)
(0.00137287 0.0640833 0)
(0.000457655 0.0640964 0)
(0.0638675 0.000456021 0)
(0.0638545 0.00136797 0)
(0.0638285 0.00227964 0)
(0.0637894 0.00319084 0)
(0.0637373 0.0041014 0)
(0.0636723 0.00501112 0)
(0.0635942 0.00591981 0)
(0.0635032 0.0068273 0)
(0.0633992 0.0077334 0)
(0.0632824 0.00863792 0)
(0.0631526 0.00954068 0)
(0.0630099 0.0104415 0)
(0.0628544 0.0113402 0)
(0.062686 0.0122365 0)
(0.0625049 0.0131304 0)
(0.062311 0.0140216 0)
(0.0621044 0.01491 0)
(0.0618852 0.0157953 0)
(0.0616534 0.0166773 0)
(0.0614089 0.017556 0)
(0.061152 0.0184311 0)
(0.0608826 0.0193025 0)
(0.0606007 0.0201699 0)
(0.0603065 0.0210331 0)
(0.06 0.0218921 0)
(0.0596813 0.0227467 0)
(0.0593504 0.0235966 0)
(0.0590074 0.0244417 0)
(0.0586524 0.0252818 0)
(0.0582854 0.0261167 0)
(0.0579065 0.0269463 0)
(0.0575158 0.0277705 0)
(0.0571134 0.0285889 0)
(0.0566994 0.0294016 0)
(0.0562737 0.0302082 0)
(0.0558366 0.0310087 0)
(0.0553882 0.0318028 0)
(0.0549284 0.0325905 0)
(0.0544574 0.0333715 0)
(0.0539753 0.0341458 0)
(0.0534822 0.034913 0)
(0.0529783 0.0356732 0)
(0.0524635 0.036426 0)
(0.051938 0.0371715 0)
(0.0514019 0.0379093 0)
(0.0508553 0.0386394 0)
(0.0502984 0.0393617 0)
(0.0497312 0.0400759 0)
(0.0491538 0.040782 0)
(0.0485665 0.0414797 0)
(0.0479692 0.042169 0)
(0.0473622 0.0428497 0)
(0.0467455 0.0435216 0)
(0.0461193 0.0441847 0)
(0.0454836 0.0448387 0)
(0.0448387 0.0454836 0)
(0.0441847 0.0461193 0)
(0.0435216 0.0467455 0)
(0.0428497 0.0473622 0)
(0.042169 0.0479692 0)
(0.0414797 0.0485665 0)
(0.040782 0.0491538 0)
(0.0400759 0.0497312 0)
(0.0393617 0.0502984 0)
(0.0386394 0.0508553 0)
(0.0379093 0.0514019 0)
(0.0371715 0.051938 0)
(0.036426 0.0524635 0)
(0.0356732 0.0529783 0)
(0.034913 0.0534822 0)
(0.0341458 0.0539753 0)
(0.0333715 0.0544574 0)
(0.0325905 0.0549284 0)
(0.0318028 0.0553882 0)
(0.0310087 0.0558366 0)
(0.0302082 0.0562737 0)
(0.0294016 0.0566994 0)
(0.0285889 0.0571134 0)
(0.0277705 0.0575158 0)
(0.0269463 0.0579065 0)
(0.0261167 0.0582854 0)
(0.0252818 0.0586524 0)
(0.0244417 0.0590074 0)
(0.0235966 0.0593504 0)
(0.0227467 0.0596813 0)
(0.0218921 0.06 0)
(0.0210331 0.0603065 0)
(0.0201699 0.0606007 0)
(0.0193025 0.0608826 0)
(0.0184311 0.061152 0)
(0.017556 0.0614089 0)
(0.0166773 0.0616534 0)
(0.0157953 0.0618852 0)
(0.01491 0.0621044 0)
(0.0140216 0.062311 0)
(0.0131304 0.0625049 0)
(0.0122365 0.062686 0)
(0.0113402 0.0628544 0)
(0.0104415 0.0630099 0)
(0.00954068 0.0631526 0)
(0.00863792 0.0632824 0)
(0.0077334 0.0633992 0)
(0.0068273 0.0635032 0)
(0.00591981 0.0635942 0)
(0.00501112 0.0636723 0)
(0.0041014 0.0637373 0)
(0.00319084 0.0637894 0)
(0.00227964 0.0638285 0)
(0.00136797 0.0638545 0)
(0.000456021 0.0638675 0)
(0.0636417 0.000454409 0)
(0.0636287 0.00136313 0)
(0.0636028 0.00227158 0)