/*--------------------------------*- C++ -*----------------------------------*\
| =========                 |                                                 |
| \\      /  F ield         | OpenFOAM: The Open Source CFD Toolbox           |
|  \\    /   O peration     | Version:  2312                                  |
|   \\  /    A nd           | Website:  www.openfoam.com                      |
|    \\/     M anipulation  |                                                 |
\*---------------------------------------------------------------------------*/
FoamFile
{
    version     2.0;
    format      ascii;
    arch        "LSB;label=32;scalar=64";
    class       volVectorField;
    location    "50";
    object      D_0;
}
// * * * * * * * * * * * * * * * * * * * * * * * * * * * * * * * * * * * * * //

dimensions      [0 1 0 0 0 0 0];

internalField   nonuniform List<vector> 
12870
(
(1.19867 0.0085586 0)
(1.19842 0.0256741 0)
(1.19793 0.0427843 0)
(1.1972 0.0598858 0)
(1.19622 0.0769751 0)
(1.195 0.0940487 0)
(1.19354 0.111103 0)
(1.19183 0.128135 0)
(1.18988 0.14514 0)
(1.18768 0.162117 0)
(1.18525 0.179059 0)
(1.18257 0.195966 0)
(1.17965 0.212832 0)
(1.17649 0.229656 0)
(1.17309 0.246432 0)
(1.16945 0.263158 0)
(1.16558 0.27983 0)
(1.16146 0.296446 0)
(1.15711 0.313 0)
(1.15252 0.329491 0)
(1.1477 0.345915 0)
(1.14264 0.362269 0)
(1.13735 0.378548 0)
(1.13183 0.39475 0)
(1.12608 0.410872 0)
(1.1201 0.42691 0)
(1.11389 0.442861 0)
(1.10745 0.458721 0)
(1.10079 0.474488 0)
(1.0939 0.490159 0)
(1.08679 0.505729 0)
(1.07946 0.521196 0)
(1.0719 0.536557 0)
(1.06413 0.551809 0)
(1.05615 0.566948 0)
(1.04794 0.581971 0)
(1.03953 0.596876 0)
(1.0309 0.611659 0)
(1.02206 0.626317 0)
(1.01301 0.640848 0)
(1.00376 0.655248 0)
(0.994296 0.669514 0)
(0.984634 0.683644 0)
(0.974772 0.697634 0)
(0.964711 0.711482 0)
(0.954453 0.725185 0)
(0.944 0.738741 0)
(0.933355 0.752145 0)
(0.92252 0.765396 0)
(0.911496 0.778491 0)
(0.900287 0.791428 0)
(0.888894 0.804203 0)
(0.87732 0.816814 0)
(0.865567 0.829258 0)
(0.853637 0.841533 0)
(0.841533 0.853637 0)
(0.829258 0.865567 0)
(0.816814 0.87732 0)
(0.804203 0.888894 0)
(0.791428 0.900287 0)
(0.778491 0.911496 0)
(0.765396 0.92252 0)
(0.752145 0.933355 0)
(0.738741 0.944 0)
(0.725185 0.954453 0)
(0.711482 0.964711 0)
(0.697634 0.974772 0)
(0.683644 0.984634 0)
(0.669514 0.994296 0)
(0.655248 1.00376 0)
(0.640848 1.01301 0)
(0.626317 1.02206 0)
(0.611659 1.0309 0)
(0.596876 1.03953 0)
(0.581971 1.04794 0)
(0.566948 1.05615 0)
(0.551809 1.06413 0)
(0.536557 1.0719 0)
(0.521196 1.07946 0)
(0.505729 1.08679 0)
(0.490159 1.0939 0)
(0.474488 1.10079 0)
(0.458721 1.10745 0)
(0.442861 1.11389 0)
(0.42691 1.1201 0)
(0.410872 1.12608 0)
(0.39475 1.13183 0)
(0.378548 1.13735 0)
(0.362269 1.14264 0)
(0.345915 1.1477 0)
(0.329491 1.15252 0)
(0.313 1.15711 0)
(0.296446 1.16146 0)
(0.27983 1.16558 0)
(0.263158 1.16945 0)
(0.246432 1.17309 0)
(0.229656 1.17649 0)
(0.212832 1.17965 0)
(0.195966 1.18257 0)
(0.179059 1.18525 0)
(0.162117 1.18768 0)
(0.14514 1.18988 0)
(0.128135 1.19183 0)
(0.111103 1.19354 0)
(0.0940487 1.195 0)
(0.0769751 1.19622 0)
(0.0598858 1.1972 0)
(0.0427843 1.19793 0)
(0.0256741 1.19842 0)
(0.0085586 1.19867 0)
(1.18918 0.00849086 0)
(1.18894 0.0254709 0)
(1.18845 0.0424456 0)
(1.18772 0.0594118 0)
(1.18675 0.0763658 0)
(1.18554 0.0933043 0)
(1.18409 0.110224 0)
(1.1824 0.127121 0)
(1.18046 0.143992 0)
(1.17828 0.160833 0)
(1.17587 0.177642 0)
(1.17321 0.194415 0)
(1.17031 0.211148 0)
(1.16718 0.227838 0)
(1.16381 0.244481 0)
(1.1602 0.261075 0)
(1.15635 0.277615 0)
(1.15227 0.294099 0)
(1.14795 0.310523 0)
(1.1434 0.326883 0)
(1.13862 0.343177 0)
(1.1336 0.359401 0)
(1.12835 0.375552 0)
(1.12287 0.391626 0)
(1.11717 0.40762 0)
(1.11123 0.423531 0)
(1.10507 0.439356 0)
(1.09869 0.455091 0)
(1.09208 0.470733 0)
(1.08524 0.486279 0)
(1.07819 0.501726 0)
(1.07091 0.517071 0)
(1.06342 0.53231 0)
(1.05571 0.547441 0)
(1.04779 0.56246 0)
(1.03965 0.577365 0)
(1.0313 0.592152 0)
(1.02274 0.606818 0)
(1.01397 0.62136 0)
(1.00499 0.635776 0)
(0.99581 0.650062 0)
(0.986426 0.664215 0)
(0.976841 0.678233 0)
(0.967057 0.692112 0)
(0.957075 0.705851 0)
(0.946898 0.719446 0)
(0.936528 0.732893 0)
(0.925968 0.746192 0)
(0.915218 0.759338 0)
(0.904282 0.77233 0)
(0.893161 0.785163 0)
(0.881858 0.797837 0)
(0.870376 0.810348 0)
(0.858716 0.822694 0)
(0.84688 0.834872 0)
(0.834872 0.84688 0)
(0.822694 0.858716 0)
(0.810348 0.870376 0)
(0.797837 0.881858 0)
(0.785163 0.893161 0)
(0.77233 0.904282 0)
(0.759338 0.915218 0)
(0.746192 0.925968 0)
(0.732893 0.936528 0)
(0.719446 0.946898 0)
(0.705851 0.957075 0)
(0.692112 0.967057 0)
(0.678233 0.976841 0)
(0.664215 0.986426 0)
(0.650062 0.99581 0)
(0.635776 1.00499 0)
(0.62136 1.01397 0)
(0.606818 1.02274 0)
(0.592152 1.0313 0)
(0.577365 1.03965 0)
(0.56246 1.04779 0)
(0.547441 1.05571 0)
(0.53231 1.06342 0)
(0.517071 1.07091 0)
(0.501726 1.07819 0)
(0.486279 1.08524 0)
(0.470733 1.09208 0)
(0.455091 1.09869 0)
(0.439356 1.10507 0)
(0.423531 1.11123 0)
(0.40762 1.11717 0)
(0.391626 1.12287 0)
(0.375552 1.12835 0)
(0.359401 1.1336 0)
(0.343177 1.13862 0)
(0.326883 1.1434 0)
(0.310523 1.14795 0)
(0.294099 1.15227 0)
(0.277615 1.15635 0)
(0.261075 1.1602 0)
(0.244481 1.16381 0)
(0.227838 1.16718 0)
(0.211148 1.17031 0)
(0.194415 1.17321 0)
(0.177642 1.17587 0)
(0.160833 1.17828 0)
(0.143992 1.18046 0)
(0.127121 1.1824 0)
(0.110224 1.18409 0)
(0.0933043 1.18554 0)
(0.0763658 1.18675 0)
(0.0594118 1.18772 0)
(0.0424456 1.18845 0)
(0.0254709 1.18894 0)
(0.00849086 1.18918 0)
(1.18009 0.00842595 0)
(1.17985 0.0252761 0)
(1.17937 0.0421212 0)
(1.17864 0.0589576 0)
(1.17768 0.0757821 0)
(1.17648 0.092591 0)
(1.17504 0.109381 0)
(1.17336 0.126149 0)
(1.17144 0.142891 0)
(1.16928 0.159604 0)
(1.16688 0.176284 0)
(1.16424 0.192929 0)
(1.16137 0.209534 0)
(1.15826 0.226096 0)
(1.15491 0.242612 0)
(1.15133 0.259079 0)
(1.14751 0.275493 0)
(1.14346 0.291851 0)
(1.13918 0.308149 0)
(1.13466 0.324385 0)
(1.12991 0.340554 0)
(1.12493 0.356654 0)
(1.11973 0.372681 0)
(1.11429 0.388632 0)
(1.10863 0.404504 0)
(1.10274 0.420293 0)
(1.09662 0.435997 0)
(1.09029 0.451612 0)
(1.08373 0.467134 0)
(1.07695 0.482562 0)
(1.06995 0.497891 0)
(1.06273 0.513118 0)
(1.05529 0.528241 0)
(1.04764 0.543256 0)
(1.03978 0.558161 0)
(1.0317 0.572951 0)
(1.02341 0.587625 0)
(1.01492 0.602179 0)
(1.00622 0.61661 0)
(0.997309 0.630916 0)
(0.988198 0.645092 0)
(0.978886 0.659137 0)
(0.969374 0.673048 0)
(0.959664 0.686822 0)
(0.949759 0.700455 0)
(0.93966 0.713946 0)
(0.929369 0.727291 0)
(0.918889 0.740488 0)
(0.908222 0.753534 0)
(0.897369 0.766426 0)
(0.886333 0.779161 0)
(0.875117 0.791738 0)
(0.863722 0.804154 0)
(0.852151 0.816405 0)
(0.840407 0.82849 0)
(0.82849 0.840407 0)
(0.816405 0.852151 0)
(0.804154 0.863722 0)
(0.791738 0.875117 0)
(0.779161 0.886333 0)
(0.766426 0.897369 0)
(0.753534 0.908222 0)
(0.740488 0.918889 0)
(0.727291 0.929369 0)
(0.713946 0.93966 0)
(0.700455 0.949759 0)
(0.686822 0.959664 0)
(0.673048 0.969374 0)
(0.659137 0.978886 0)
(0.645092 0.988198 0)
(0.630916 0.997309 0)
(0.61661 1.00622 0)
(0.602179 1.01492 0)
(0.587625 1.02341 0)
(0.572951 1.0317 0)
(0.558161 1.03978 0)
(0.543256 1.04764 0)
(0.528241 1.05529 0)
(0.513118 1.06273 0)
(0.497891 1.06995 0)
(0.482562 1.07695 0)
(0.467134 1.08373 0)
(0.451612 1.09029 0)
(0.435997 1.09662 0)
(0.420293 1.10274 0)
(0.404504 1.10863 0)
(0.388632 1.11429 0)
(0.372681 1.11973 0)
(0.356654 1.12493 0)
(0.340554 1.12991 0)
(0.324385 1.13466 0)
(0.308149 1.13918 0)
(0.291851 1.14346 0)
(0.275493 1.14751 0)
(0.259079 1.15133 0)
(0.242612 1.15491 0)
(0.226096 1.15826 0)
(0.209534 1.16137 0)
(0.192929 1.16424 0)
(0.176284 1.16688 0)
(0.159604 1.16928 0)
(0.142891 1.17144 0)
(0.126149 1.17336 0)
(0.109381 1.17504 0)
(0.092591 1.17648 0)
(0.0757821 1.17768 0)
(0.0589576 1.17864 0)
(0.0421212 1.17937 0)
(0.0252761 1.17985 0)
(0.00842595 1.18009 0)
(1.17117 0.00836225 0)
(1.17093 0.025085 0)
(1.17045 0.0418027 0)
(1.16973 0.0585119 0)
(1.16878 0.0752091 0)
(1.16759 0.091891 0)
(1.16615 0.108554 0)
(1.16449 0.125195 0)
(1.16258 0.141811 0)
(1.16044 0.158397 0)
(1.15805 0.174951 0)
(1.15544 0.19147 0)
(1.15259 0.20795 0)
(1.1495 0.224387 0)
(1.14618 0.240778 0)
(1.14262 0.25712 0)
(1.13884 0.27341 0)
(1.13482 0.289644 0)
(1.13056 0.305819 0)
(1.12608 0.321932 0)
(1.12137 0.337979 0)
(1.11643 0.353957 0)
(1.11126 0.369863 0)
(1.10587 0.385694 0)
(1.10025 0.401445 0)
(1.0944 0.417116 0)
(1.08833 0.4327 0)
(1.08204 0.448197 0)
(1.07553 0.463603 0)
(1.0688 0.478913 0)
(1.06186 0.494126 0)
(1.05469 0.509239 0)
(1.04731 0.524247 0)
(1.03972 0.539149 0)
(1.03192 0.553941 0)
(1.0239 0.568619 0)
(1.01568 0.583182 0)
(1.00724 0.597626 0)
(0.998608 0.611948 0)
(0.989768 0.626145 0)
(0.980726 0.640215 0)
(0.971484 0.654154 0)
(0.962044 0.667959 0)
(0.952408 0.681629 0)
(0.942578 0.695159 0)
(0.932555 0.708548 0)
(0.922342 0.721792 0)
(0.911942 0.734889 0)
(0.901355 0.747836 0)
(0.890584 0.760631 0)
(0.879632 0.77327 0)
(0.8685 0.785752 0)
(0.857192 0.798074 0)
(0.845708 0.810233 0)
(0.834052 0.822226 0)
(0.822226 0.834052 0)
(0.810233 0.845708 0)
(0.798074 0.857192 0)
(0.785752 0.8685 0)
(0.77327 0.879632 0)
(0.760631 0.890584 0)
(0.747836 0.901355 0)
(0.734889 0.911942 0)
(0.721792 0.922342 0)
(0.708548 0.932555 0)
(0.695159 0.942578 0)
(0.681629 0.952408 0)
(0.667959 0.962044 0)
(0.654154 0.971484 0)
(0.640215 0.980726 0)
(0.626145 0.989768 0)
(0.611948 0.998608 0)
(0.597626 1.00724 0)
(0.583182 1.01568 0)
(0.568619 1.0239 0)
(0.553941 1.03192 0)
(0.539149 1.03972 0)
(0.524247 1.04731 0)
(0.509239 1.05469 0)
(0.494126 1.06186 0)
(0.478913 1.0688 0)
(0.463603 1.07553 0)
(0.448197 1.08204 0)
(0.4327 1.08833 0)
(0.417116 1.0944 0)
(0.401445 1.10025 0)
(0.385694 1.10587 0)
(0.369863 1.11126 0)
(0.353957 1.11643 0)
(0.337979 1.12137 0)
(0.321932 1.12608 0)
(0.305819 1.13056 0)
(0.289644 1.13482 0)
(0.27341 1.13884 0)
(0.25712 1.14262 0)
(0.240778 1.14618 0)
(0.224387 1.1495 0)
(0.20795 1.15259 0)
(0.19147 1.15544 0)
(0.174951 1.15805 0)
(0.158397 1.16044 0)
(0.141811 1.16258 0)
(0.125195 1.16449 0)
(0.108554 1.16615 0)
(0.091891 1.16759 0)
(0.0752091 1.16878 0)
(0.0585119 1.16973 0)
(0.0418027 1.17045 0)
(0.025085 1.17093 0)
(0.00836225 1.17117 0)
(1.16252 0.00830055 0)
(1.16229 0.0249 0)
(1.16181 0.0414943 0)
(1.1611 0.0580802 0)
(1.16016 0.0746542 0)
(1.15897 0.091213 0)
(1.15755 0.107753 0)
(1.15589 0.124271 0)
(1.154 0.140764 0)
(1.15187 0.157228 0)
(1.14951 0.173661 0)
(1.14691 0.190057 0)
(1.14408 0.206415 0)
(1.14102 0.222731 0)
(1.13772 0.239002 0)
(1.13419 0.255223 0)
(1.13043 0.271393 0)
(1.12644 0.287507 0)
(1.12222 0.303563 0)
(1.11777 0.319557 0)
(1.1131 0.335485 0)
(1.10819 0.351346 0)
(1.10306 0.367134 0)
(1.09771 0.382848 0)
(1.09213 0.398484 0)
(1.08633 0.414038 0)
(1.0803 0.429508 0)
(1.07406 0.44489 0)
(1.0676 0.460182 0)
(1.06092 0.47538 0)
(1.05402 0.490481 0)
(1.04691 0.505482 0)
(1.03959 0.520379 0)
(1.03205 0.535171 0)
(1.0243 0.549854 0)
(1.01635 0.564424 0)
(1.00818 0.578879 0)
(0.999813 0.593217 0)
(0.991241 0.607433 0)
(0.982466 0.621526 0)
(0.973491 0.635491 0)
(0.964317 0.649327 0)
(0.954946 0.663031 0)
(0.945381 0.6766 0)
(0.935623 0.69003 0)
(0.925675 0.70332 0)
(0.915537 0.716467 0)
(0.905213 0.729467 0)
(0.894705 0.742319 0)
(0.884013 0.755019 0)
(0.873142 0.767565 0)
(0.862093 0.779955 0)
(0.850867 0.792186 0)
(0.839469 0.804255 0)
(0.827899 0.81616 0)
(0.81616 0.827899 0)
(0.804255 0.839469 0)
(0.792186 0.850867 0)
(0.779955 0.862093 0)
(0.767565 0.873142 0)
(0.755019 0.884013 0)
(0.742319 0.894705 0)
(0.729467 0.905213 0)
(0.716467 0.915537 0)
(0.70332 0.925675 0)
(0.69003 0.935623 0)
(0.6766 0.945381 0)
(0.663031 0.954946 0)
(0.649327 0.964317 0)
(0.635491 0.973491 0)
(0.621526 0.982466 0)
(0.607433 0.991241 0)
(0.593217 0.999813 0)
(0.578879 1.00818 0)
(0.564424 1.01635 0)
(0.549854 1.0243 0)
(0.535171 1.03205 0)
(0.520379 1.03959 0)
(0.505482 1.04691 0)
(0.490481 1.05402 0)
(0.47538 1.06092 0)
(0.460182 1.0676 0)
(0.44489 1.07406 0)
(0.429508 1.0803 0)
(0.414038 1.08633 0)
(0.398484 1.09213 0)
(0.382848 1.09771 0)
(0.367134 1.10306 0)
(0.351346 1.10819 0)
(0.335485 1.1131 0)
(0.319557 1.11777 0)
(0.303563 1.12222 0)
(0.287507 1.12644 0)
(0.271393 1.13043 0)
(0.255223 1.13419 0)
(0.239002 1.13772 0)
(0.222731 1.14102 0)
(0.206415 1.14408 0)
(0.190057 1.14691 0)
(0.173661 1.14951 0)
(0.157228 1.15187 0)
(0.140764 1.154 0)
(0.124271 1.15589 0)
(0.107753 1.15755 0)
(0.091213 1.15897 0)
(0.0746542 1.16016 0)
(0.0580802 1.1611 0)
(0.0414943 1.16181 0)
(0.0249 1.16229 0)
(0.00830055 1.16252 0)
(1.15409 0.00824035 0)
(1.15386 0.0247194 0)
(1.15339 0.0411933 0)
(1.15268 0.0576589 0)
(1.15174 0.0741127 0)
(1.15056 0.0905514 0)
(1.14915 0.106972 0)
(1.14751 0.12337 0)
(1.14563 0.139743 0)
(1.14352 0.156088 0)
(1.14117 0.172401 0)
(1.1386 0.188679 0)
(1.13578 0.204918 0)
(1.13274 0.221116 0)
(1.12947 0.237268 0)
(1.12597 0.253372 0)
(1.12223 0.269425 0)
(1.11827 0.285422 0)
(1.11408 0.301361 0)
(1.10967 0.317239 0)
(1.10502 0.333052 0)
(1.10015 0.348797 0)
(1.09506 0.364471 0)
(1.08975 0.380071 0)
(1.08421 0.395593 0)
(1.07845 0.411035 0)
(1.07247 0.426393 0)
(1.06627 0.441664 0)
(1.05985 0.456844 0)
(1.05322 0.471932 0)
(1.04638 0.486923 0)
(1.03932 0.501815 0)
(1.03205 0.516605 0)
(1.02456 0.53129 0)
(1.01687 0.545866 0)
(1.00897 0.56033 0)
(1.00087 0.574681 0)
(0.992562 0.588914 0)
(0.984051 0.603027 0)
(0.97534 0.617018 0)
(0.96643 0.630882 0)
(0.957323 0.644618 0)
(0.94802 0.658222 0)
(0.938525 0.671692 0)
(0.928837 0.685026 0)
(0.918961 0.698219 0)
(0.908897 0.71127 0)
(0.898648 0.724176 0)
(0.888215 0.736935 0)
(0.877602 0.749543 0)
(0.866809 0.761998 0)
(0.85584 0.774298 0)
(0.844696 0.78644 0)
(0.83338 0.798421 0)
(0.821894 0.81024 0)
(0.81024 0.821894 0)
(0.798421 0.83338 0)
(0.78644 0.844696 0)
(0.774298 0.85584 0)
(0.761998 0.866809 0)
(0.749543 0.877602 0)
(0.736935 0.888215 0)
(0.724176 0.898648 0)
(0.71127 0.908897 0)
(0.698219 0.918961 0)
(0.685026 0.928837 0)
(0.671692 0.938525 0)
(0.658222 0.94802 0)
(0.644618 0.957323 0)
(0.630882 0.96643 0)
(0.617018 0.97534 0)
(0.603027 0.984051 0)
(0.588914 0.992562 0)
(0.574681 1.00087 0)
(0.56033 1.00897 0)
(0.545866 1.01687 0)
(0.53129 1.02456 0)
(0.516605 1.03205 0)
(0.501815 1.03932 0)
(0.486923 1.04638 0)
(0.471932 1.05322 0)
(0.456844 1.05985 0)
(0.441664 1.06627 0)
(0.426393 1.07247 0)
(0.411035 1.07845 0)
(0.395593 1.08421 0)
(0.380071 1.08975 0)
(0.364471 1.09506 0)
(0.348797 1.10015 0)
(0.333052 1.10502 0)
(0.317239 1.10967 0)
(0.301361 1.11408 0)
(0.285422 1.11827 0)
(0.269425 1.12223 0)
(0.253372 1.12597 0)
(0.237268 1.12947 0)
(0.221116 1.13274 0)
(0.204918 1.13578 0)
(0.188679 1.1386 0)
(0.172401 1.14117 0)
(0.156088 1.14352 0)
(0.139743 1.14563 0)
(0.12337 1.14751 0)
(0.106972 1.14915 0)
(0.0905514 1.15056 0)
(0.0741127 1.15174 0)
(0.0576589 1.15268 0)
(0.0411933 1.15339 0)
(0.0247194 1.15386 0)
(0.00824035 1.15409 0)
(1.1459 0.00818184 0)
(1.14567 0.0245439 0)
(1.1452 0.0409009 0)
(1.1445 0.0572496 0)
(1.14356 0.0735866 0)
(1.1424 0.0899086 0)
(1.141 0.106212 0)
(1.13936 0.122494 0)
(1.1375 0.138751 0)
(1.1354 0.15498 0)
(1.13307 0.171177 0)
(1.13051 0.187339 0)
(1.12772 0.203463 0)
(1.1247 0.219546 0)
(1.12145 0.235584 0)
(1.11797 0.251573 0)
(1.11427 0.267512 0)
(1.11033 0.283396 0)
(1.10617 0.299222 0)
(1.10179 0.314987 0)
(1.09718 0.330688 0)
(1.09234 0.346321 0)
(1.08729 0.361884 0)
(1.08201 0.377373 0)
(1.07651 0.392785 0)
(1.07079 0.408117 0)
(1.06485 0.423366 0)
(1.0587 0.438528 0)
(1.05233 0.453601 0)
(1.04575 0.468581 0)
(1.03895 0.483466 0)
(1.03194 0.498253 0)
(1.02472 0.512938 0)
(1.01729 0.527518 0)
(1.00965 0.54199 0)
(1.00181 0.556352 0)
(0.993764 0.570601 0)
(0.985515 0.584733 0)
(0.977065 0.598746 0)
(0.968416 0.612637 0)
(0.959569 0.626403 0)
(0.950526 0.640041 0)
(0.94129 0.653549 0)
(0.931862 0.666924 0)
(0.922243 0.680162 0)
(0.912437 0.693262 0)
(0.902444 0.70622 0)
(0.892268 0.719035 0)
(0.881909 0.731703 0)
(0.871371 0.744221 0)
(0.860655 0.756588 0)
(0.849764 0.768801 0)
(0.838699 0.780857 0)
(0.827463 0.792753 0)
(0.816059 0.804488 0)
(0.804488 0.816059 0)
(0.792753 0.827463 0)
(0.780857 0.838699 0)
(0.768801 0.849764 0)
(0.756588 0.860655 0)
(0.744221 0.871371 0)
(0.731703 0.881909 0)
(0.719035 0.892268 0)
(0.70622 0.902444 0)
(0.693262 0.912437 0)
(0.680162 0.922243 0)
(0.666924 0.931862 0)
(0.653549 0.94129 0)
(0.640041 0.950526 0)
(0.626403 0.959569 0)
(0.612637 0.968416 0)
(0.598746 0.977065 0)
(0.584733 0.985515 0)
(0.570601 0.993764 0)
(0.556352 1.00181 0)
(0.54199 1.00965 0)
(0.527518 1.01729 0)
(0.512938 1.02472 0)
(0.498253 1.03194 0)
(0.483466 1.03895 0)
(0.468581 1.04575 0)
(0.453601 1.05233 0)
(0.438528 1.0587 0)
(0.423366 1.06485 0)
(0.408117 1.07079 0)
(0.392785 1.07651 0)
(0.377373 1.08201 0)
(0.361884 1.08729 0)
(0.346321 1.09234 0)
(0.330688 1.09718 0)
(0.314987 1.10179 0)
(0.299222 1.10617 0)
(0.283396 1.11033 0)
(0.267512 1.11427 0)
(0.251573 1.11797 0)
(0.235584 1.12145 0)
(0.219546 1.1247 0)
(0.203463 1.12772 0)
(0.187339 1.13051 0)
(0.171177 1.13307 0)
(0.15498 1.1354 0)
(0.138751 1.1375 0)
(0.122494 1.13936 0)
(0.106212 1.141 0)
(0.0899086 1.1424 0)
(0.0735866 1.14356 0)
(0.0572496 1.1445 0)
(0.0409009 1.1452 0)
(0.0245439 1.14567 0)
(0.00818184 1.1459 0)
(1.13792 0.00812486 0)
(1.13769 0.0243729 0)
(1.13722 0.040616 0)
(1.13653 0.0568508 0)
(1.1356 0.073074 0)
(1.13444 0.0892824 0)
(1.13305 0.105472 0)
(1.13143 0.121641 0)
(1.12958 0.137785 0)
(1.12749 0.153901 0)
(1.12518 0.169985 0)
(1.12264 0.186035 0)
(1.11987 0.202046 0)
(1.11687 0.218017 0)
(1.11364 0.233943 0)
(1.11019 0.249821 0)
(1.10651 0.265649 0)
(1.1026 0.281422 0)
(1.09847 0.297138 0)
(1.09411 0.312793 0)
(1.08954 0.328385 0)
(1.08474 0.343909 0)
(1.07971 0.359363 0)
(1.07447 0.374745 0)
(1.06901 0.390049 0)
(1.06333 0.405274 0)
(1.05744 0.420417 0)
(1.05133 0.435474 0)
(1.045 0.450442 0)
(1.03846 0.465318 0)
(1.03171 0.480099 0)
(1.02475 0.494783 0)
(1.01758 0.509365 0)
(1.0102 0.523844 0)
(1.00262 0.538215 0)
(0.994834 0.552478 0)
(0.986843 0.566627 0)
(0.978651 0.580661 0)
(0.97026 0.594576 0)
(0.961671 0.60837 0)
(0.952886 0.62204 0)
(0.943906 0.635584 0)
(0.934734 0.648997 0)
(0.925371 0.662279 0)
(0.91582 0.675425 0)
(0.906082 0.688434 0)
(0.896159 0.701302 0)
(0.886054 0.714027 0)
(0.875767 0.726607 0)
(0.865302 0.739038 0)
(0.854661 0.751319 0)
(0.843846 0.763446 0)
(0.832858 0.775418 0)
(0.8217 0.787232 0)
(0.810375 0.798885 0)
(0.798885 0.810375 0)
(0.787232 0.8217 0)
(0.775418 0.832858 0)
(0.763446 0.843846 0)
(0.751319 0.854661 0)
(0.739038 0.865302 0)
(0.726607 0.875767 0)
(0.714027 0.886054 0)
(0.701302 0.896159 0)
(0.688434 0.906082 0)
(0.675425 0.91582 0)
(0.662279 0.925371 0)
(0.648997 0.934734 0)
(0.635584 0.943906 0)
(0.62204 0.952886 0)
(0.60837 0.961671 0)
(0.594576 0.97026 0)
(0.580661 0.978651 0)
(0.566627 0.986843 0)
(0.552478 0.994834 0)
(0.538215 1.00262 0)
(0.523844 1.0102 0)
(0.509365 1.01758 0)
(0.494783 1.02475 0)
(0.480099 1.03171 0)
(0.465318 1.03846 0)
(0.450442 1.045 0)
(0.435474 1.05133 0)
(0.420417 1.05744 0)
(0.405274 1.06333 0)
(0.390049 1.06901 0)
(0.374745 1.07447 0)
(0.359363 1.07971 0)
(0.343909 1.08474 0)
(0.328385 1.08954 0)
(0.312793 1.09411 0)
(0.297138 1.09847 0)
(0.281422 1.1026 0)
(0.265649 1.10651 0)
(0.249821 1.11019 0)
(0.233943 1.11364 0)
(0.218017 1.11687 0)
(0.202046 1.11987 0)
(0.186035 1.12264 0)
(0.169985 1.12518 0)
(0.153901 1.12749 0)
(0.137785 1.12958 0)
(0.121641 1.13143 0)
(0.105472 1.13305 0)
(0.0892824 1.13444 0)
(0.073074 1.1356 0)
(0.0568508 1.13653 0)
(0.040616 1.13722 0)
(0.0243729 1.13769 0)
(0.00812486 1.13792 0)
(1.13016 0.00806943 0)
(1.12992 0.0242066 0)
(1.12946 0.0403389 0)
(1.12877 0.0564629 0)
(1.12785 0.0725755 0)
(1.1267 0.0886732 0)
(1.12532 0.104753 0)
(1.12371 0.120811 0)
(1.12187 0.136845 0)
(1.1198 0.152851 0)
(1.1175 0.168825 0)
(1.11498 0.184765 0)
(1.11223 0.200668 0)
(1.10925 0.216529 0)
(1.10604 0.232347 0)
(1.10261 0.248117 0)
(1.09896 0.263836 0)
(1.09508 0.279502 0)
(1.09097 0.29511 0)
(1.08665 0.310659 0)
(1.0821 0.326144 0)
(1.07733 0.341563 0)
(1.07235 0.356912 0)
(1.06714 0.372188 0)
(1.06172 0.387388 0)
(1.05608 0.402509 0)
(1.05022 0.417549 0)
(1.04415 0.432503 0)
(1.03787 0.447369 0)
(1.03138 0.462143 0)
(1.02467 0.476824 0)
(1.01776 0.491407 0)
(1.01064 0.50589 0)
(1.00331 0.52027 0)
(0.995781 0.534543 0)
(0.988046 0.548708 0)
(0.98011 0.562761 0)
(0.971974 0.576699 0)
(0.96364 0.590519 0)
(0.95511 0.60422 0)
(0.946384 0.617796 0)
(0.937466 0.631247 0)
(0.928357 0.644569 0)
(0.919058 0.65776 0)
(0.909572 0.670817 0)
(0.8999 0.683737 0)
(0.890045 0.696517 0)
(0.880008 0.709155 0)
(0.869792 0.721649 0)
(0.859399 0.733996 0)
(0.84883 0.746193 0)
(0.838088 0.758237 0)
(0.827175 0.770128 0)
(0.816094 0.781861 0)
(0.804846 0.793434 0)
(0.793434 0.804846 0)
(0.781861 0.816094 0)
(0.770128 0.827175 0)
(0.758237 0.838088 0)
(0.746193 0.84883 0)
(0.733996 0.859399 0)
(0.721649 0.869792 0)
(0.709155 0.880008 0)
(0.696517 0.890045 0)
(0.683737 0.8999 0)
(0.670817 0.909572 0)
(0.65776 0.919058 0)
(0.644569 0.928357 0)
(0.631247 0.937466 0)
(0.617796 0.946384 0)
(0.60422 0.95511 0)
(0.590519 0.96364 0)
(0.576699 0.971974 0)
(0.562761 0.98011 0)
(0.548708 0.988046 0)
(0.534543 0.995781 0)
(0.52027 1.00331 0)
(0.50589 1.01064 0)
(0.491407 1.01776 0)
(0.476824 1.02467 0)
(0.462143 1.03138 0)
(0.447369 1.03787 0)
(0.432503 1.04415 0)
(0.417549 1.05022 0)
(0.402509 1.05608 0)
(0.387388 1.06172 0)
(0.372188 1.06714 0)
(0.356912 1.07235 0)
(0.341563 1.07733 0)
(0.326144 1.0821 0)
(0.310659 1.08665 0)
(0.29511 1.09097 0)
(0.279502 1.09508 0)
(0.263836 1.09896 0)
(0.248117 1.10261 0)
(0.232347 1.10604 0)
(0.216529 1.10925 0)
(0.200668 1.11223 0)
(0.184765 1.11498 0)
(0.168825 1.1175 0)
(0.152851 1.1198 0)
(0.136845 1.12187 0)
(0.120811 1.12371 0)
(0.104753 1.12532 0)
(0.0886732 1.1267 0)
(0.0725755 1.12785 0)
(0.0564629 1.12877 0)
(0.0403389 1.12946 0)
(0.0242066 1.12992 0)
(0.00806943 1.13016 0)
(1.1226 0.00801546 0)
(1.12237 0.0240447 0)
(1.12191 0.0400691 0)
(1.12122 0.0560853 0)
(1.12031 0.0720901 0)
(1.11916 0.0880802 0)
(1.11779 0.104052 0)
(1.11619 0.120003 0)
(1.11437 0.13593 0)
(1.11231 0.151828 0)
(1.11003 0.167696 0)
(1.10752 0.18353 0)
(1.10479 0.199326 0)
(1.10183 0.215081 0)
(1.09865 0.230793 0)
(1.09524 0.246457 0)
(1.09161 0.262072 0)
(1.08775 0.277632 0)
(1.08368 0.293137 0)
(1.07938 0.308581 0)
(1.07487 0.323963 0)
(1.07013 0.339278 0)
(1.06518 0.354525 0)
(1.06 0.369699 0)
(1.05462 0.384797 0)
(1.04902 0.399817 0)
(1.0432 0.414756 0)
(1.03717 0.42961 0)
(1.03093 0.444377 0)
(1.02448 0.459052 0)
(1.01782 0.473635 0)
(1.01095 0.48812 0)
(1.00388 0.502506 0)
(0.996602 0.51679 0)
(0.989121 0.530968 0)
(0.981438 0.545038 0)
(0.973555 0.558997 0)
(0.965474 0.572842 0)
(0.957195 0.58657 0)
(0.948722 0.600178 0)
(0.940055 0.613665 0)
(0.931196 0.627025 0)
(0.922148 0.640259 0)
(0.912911 0.653361 0)
(0.903488 0.66633 0)
(0.893881 0.679164 0)
(0.884092 0.691859 0)
(0.874123 0.704412 0)
(0.863975 0.716823 0)
(0.853651 0.729087 0)
(0.843153 0.741202 0)
(0.832483 0.753166 0)
(0.821643 0.764977 0)
(0.810636 0.776632 0)
(0.799463 0.788128 0)
(0.788128 0.799463 0)
(0.776632 0.810636 0)
(0.764977 0.821643 0)
(0.753166 0.832483 0)
(0.741202 0.843153 0)
(0.729087 0.853651 0)
(0.716823 0.863975 0)
(0.704412 0.874123 0)
(0.691859 0.884092 0)
(0.679164 0.893881 0)
(0.66633 0.903488 0)
(0.653361 0.912911 0)
(0.640259 0.922148 0)
(0.627025 0.931196 0)
(0.613665 0.940055 0)
(0.600178 0.948722 0)
(0.58657 0.957195 0)
(0.572842 0.965474 0)
(0.558997 0.973555 0)
(0.545038 0.981438 0)
(0.530968 0.989121 0)
(0.51679 0.996602 0)
(0.502506 1.00388 0)
(0.48812 1.01095 0)
(0.473635 1.01782 0)
(0.459052 1.02448 0)
(0.444377 1.03093 0)
(0.42961 1.03717 0)
(0.414756 1.0432 0)
(0.399817 1.04902 0)
(0.384797 1.05462 0)
(0.369699 1.06 0)
(0.354525 1.06518 0)
(0.339278 1.07013 0)
(0.323963 1.07487 0)
(0.308581 1.07938 0)
(0.293137 1.08368 0)
(0.277632 1.08775 0)
(0.262072 1.09161 0)
(0.246457 1.09524 0)
(0.230793 1.09865 0)
(0.215081 1.10183 0)
(0.199326 1.10479 0)
(0.18353 1.10752 0)
(0.167696 1.11003 0)
(0.151828 1.11231 0)
(0.13593 1.11437 0)
(0.120003 1.11619 0)
(0.104052 1.11779 0)
(0.0880802 1.11916 0)
(0.0720901 1.12031 0)
(0.0560853 1.12122 0)
(0.0400691 1.12191 0)
(0.0240447 1.12237 0)
(0.00801546 1.1226 0)
(1.11524 0.00796294 0)
(1.11501 0.0238872 0)
(1.11456 0.0398066 0)
(1.11388 0.0557178 0)
(1.11297 0.0716177 0)
(1.11183 0.087503 0)
(1.11047 0.10337 0)
(1.10888 0.119217 0)
(1.10706 0.135039 0)
(1.10502 0.150833 0)
(1.10276 0.166597 0)
(1.10026 0.182327 0)
(1.09755 0.19802 0)
(1.09461 0.213672 0)
(1.09145 0.229281 0)
(1.08806 0.244842 0)
(1.08445 0.260354 0)
(1.08063 0.275813 0)
(1.07658 0.291216 0)
(1.07231 0.306559 0)
(1.06782 0.32184 0)
(1.06312 0.337055 0)
(1.0582 0.352202 0)
(1.05306 0.367276 0)
(1.04771 0.382276 0)
(1.04214 0.397198 0)
(1.03636 0.412038 0)
(1.03037 0.426795 0)
(1.02417 0.441465 0)
(1.01777 0.456044 0)
(1.01115 0.470531 0)
(1.00433 0.484922 0)
(0.997302 0.499214 0)
(0.990072 0.513404 0)
(0.98264 0.527489 0)
(0.975007 0.541467 0)
(0.967176 0.555334 0)
(0.959147 0.569088 0)
(0.950923 0.582727 0)
(0.942505 0.596246 0)
(0.933895 0.609643 0)
(0.925094 0.622917 0)
(0.916105 0.636063 0)
(0.906929 0.64908 0)
(0.897568 0.661964 0)
(0.888024 0.674714 0)
(0.878299 0.687325 0)
(0.868395 0.699797 0)
(0.858314 0.712126 0)
(0.848057 0.724309 0)
(0.837628 0.736345 0)
(0.827028 0.748231 0)
(0.816259 0.759964 0)
(0.805324 0.771543 0)
(0.794225 0.782964 0)
(0.782964 0.794225 0)
(0.771543 0.805324 0)
(0.759964 0.816259 0)
(0.748231 0.827028 0)
(0.736345 0.837628 0)
(0.724309 0.848057 0)
(0.712126 0.858314 0)
(0.699797 0.868395 0)
(0.687325 0.878299 0)
(0.674714 0.888024 0)
(0.661964 0.897568 0)
(0.64908 0.906929 0)
(0.636063 0.916105 0)
(0.622917 0.925094 0)
(0.609643 0.933895 0)
(0.596246 0.942505 0)
(0.582727 0.950923 0)
(0.569088 0.959147 0)
(0.555334 0.967176 0)
(0.541467 0.975007 0)
(0.527489 0.98264 0)
(0.513404 0.990072 0)
(0.499214 0.997302 0)
(0.484922 1.00433 0)
(0.470531 1.01115 0)
(0.456044 1.01777 0)
(0.441465 1.02417 0)
(0.426795 1.03037 0)
(0.412038 1.03636 0)
(0.397198 1.04214 0)
(0.382276 1.04771 0)
(0.367276 1.05306 0)
(0.352202 1.0582 0)
(0.337055 1.06312 0)
(0.32184 1.06782 0)
(0.306559 1.07231 0)
(0.291216 1.07658 0)
(0.275813 1.08063 0)
(0.260354 1.08445 0)
(0.244842 1.08806 0)
(0.229281 1.09145 0)
(0.213672 1.09461 0)
(0.19802 1.09755 0)
(0.182327 1.10026 0)
(0.166597 1.10276 0)
(0.150833 1.10502 0)
(0.135039 1.10706 0)
(0.119217 1.10888 0)
(0.10337 1.11047 0)
(0.087503 1.11183 0)
(0.0716177 1.11297 0)
(0.0557178 1.11388 0)
(0.0398066 1.11456 0)
(0.0238872 1.11501 0)
(0.00796294 1.11524 0)
(1.10808 0.00791181 0)
(1.10785 0.0237338 0)
(1.1074 0.039551 0)
(1.10672 0.0553601 0)
(1.10582 0.0711579 0)
(1.10469 0.0869412 0)
(1.10334 0.102707 0)
(1.10176 0.118451 0)
(1.09996 0.134172 0)
(1.09793 0.149865 0)
(1.09568 0.165528 0)
(1.0932 0.181156 0)
(1.0905 0.196748 0)
(1.08758 0.2123 0)
(1.08444 0.227808 0)
(1.08108 0.24327 0)
(1.07749 0.258683 0)
(1.07369 0.274042 0)
(1.06967 0.289346 0)
(1.06542 0.304591 0)
(1.06097 0.319774 0)
(1.05629 0.334891 0)
(1.0514 0.34994 0)
(1.0463 0.364918 0)
(1.04098 0.379821 0)
(1.03545 0.394647 0)
(1.02971 0.409393 0)
(1.02376 0.424055 0)
(1.0176 0.43863 0)
(1.01123 0.453116 0)
(1.00466 0.46751 0)
(0.99788 0.481808 0)
(0.990899 0.496008 0)
(0.983715 0.510107 0)
(0.976331 0.524102 0)
(0.968747 0.53799 0)
(0.960966 0.551769 0)
(0.952989 0.565435 0)
(0.944818 0.578985 0)
(0.936454 0.592418 0)
(0.927899 0.605729 0)
(0.919155 0.618917 0)
(0.910223 0.631979 0)
(0.901106 0.644913 0)
(0.891805 0.657714 0)
(0.882323 0.670382 0)
(0.87266 0.682912 0)
(0.862819 0.695304 0)
(0.852803 0.707554 0)
(0.842612 0.719659 0)
(0.83225 0.731618 0)
(0.821718 0.743427 0)
(0.811019 0.755085 0)
(0.800154 0.766589 0)
(0.789126 0.777937 0)
(0.777937 0.789126 0)
(0.766589 0.800154 0)
(0.755085 0.811019 0)
(0.743427 0.821718 0)
(0.731618 0.83225 0)
(0.719659 0.842612 0)
(0.707554 0.852803 0)
(0.695304 0.862819 0)
(0.682912 0.87266 0)
(0.670382 0.882323 0)
(0.657714 0.891805 0)
(0.644913 0.901106 0)
(0.631979 0.910223 0)
(0.618917 0.919155 0)
(0.605729 0.927899 0)
(0.592418 0.936454 0)
(0.578985 0.944818 0)
(0.565435 0.952989 0)
(0.551769 0.960966 0)
(0.53799 0.968747 0)
(0.524102 0.976331 0)
(0.510107 0.983715 0)
(0.496008 0.990899 0)
(0.481808 0.99788 0)
(0.46751 1.00466 0)
(0.453116 1.01123 0)
(0.43863 1.0176 0)
(0.424055 1.02376 0)
(0.409393 1.02971 0)
(0.394647 1.03545 0)
(0.379821 1.04098 0)
(0.364918 1.0463 0)
(0.34994 1.0514 0)
(0.334891 1.05629 0)
(0.319774 1.06097 0)
(0.304591 1.06542 0)
(0.289346 1.06967 0)
(0.274042 1.07369 0)
(0.258683 1.07749 0)
(0.24327 1.08108 0)
(0.227808 1.08444 0)
(0.2123 1.08758 0)
(0.196748 1.0905 0)
(0.181156 1.0932 0)
(0.165528 1.09568 0)
(0.149865 1.09793 0)
(0.134172 1.09996 0)
(0.118451 1.10176 0)
(0.102707 1.10334 0)
(0.0869412 1.10469 0)
(0.0711579 1.10582 0)
(0.0553601 1.10672 0)
(0.039551 1.1074 0)
(0.0237338 1.10785 0)
(0.00791181 1.10808 0)
(1.10111 0.00786205 0)
(1.10089 0.0235845 0)
(1.10044 0.0393022 0)
(1.09976 0.0550119 0)
(1.09887 0.0707103 0)
(1.09774 0.0863944 0)
(1.0964 0.102061 0)
(1.09483 0.117706 0)
(1.09304 0.133328 0)
(1.09102 0.148922 0)
(1.08878 0.164486 0)
(1.08632 0.180017 0)
(1.08364 0.195511 0)
(1.08074 0.210965 0)
(1.07762 0.226376 0)
(1.07428 0.24174 0)
(1.07071 0.257056 0)
(1.06693 0.272319 0)
(1.06294 0.287526 0)
(1.05872 0.302675 0)
(1.05429 0.317762 0)
(1.04965 0.332785 0)
(1.04479 0.347739 0)
(1.03972 0.362623 0)
(1.03443 0.377433 0)
(1.02894 0.392165 0)
(1.02323 0.406818 0)
(1.01732 0.421388 0)
(1.0112 0.435872 0)
(1.00487 0.450267 0)
(0.99834 0.46457 0)
(0.991604 0.478778 0)
(0.984666 0.492889 0)
(0.977528 0.506899 0)
(0.97019 0.520806 0)
(0.962654 0.534607 0)
(0.954922 0.548298 0)
(0.946995 0.561878 0)
(0.938875 0.575344 0)
(0.930564 0.588692 0)
(0.922063 0.60192 0)
(0.913374 0.615025 0)
(0.904499 0.628005 0)
(0.895439 0.640856 0)
(0.886196 0.653577 0)
(0.876773 0.666165 0)
(0.867171 0.678617 0)
(0.857393 0.690931 0)
(0.847439 0.703103 0)
(0.837313 0.715133 0)