/*--------------------------------*- C++ -*----------------------------------*\
| =========                 |                                                 |
| \\      /  F ield         | OpenFOAM: The Open Source CFD Toolbox           |
|  \\    /   O peration     | Version:  2312                                  |
|   \\  /    A nd           | Website:  www.openfoam.com                      |
|    \\/     M anipulation  |                                                 |
\*---------------------------------------------------------------------------*/
FoamFile
{
    version     2.0;
    format      ascii;
    arch        "LSB;label=32;scalar=64";
    class       volSymmTensorField;
    location    "50";
    object      sigma:Transformed;
}
// * * * * * * * * * * * * * * * * * * * * * * * * * * * * * * * * * * * * * //

dimensions      [1 -1 -2 0 0 0 0];

internalField   nonuniform List<symmTensor> 
12870
(
(-4.90449e+07 -0.0480108 -8.93783e-12 7.87136e+07 -2.08444e-09 -6.08749e+06)
(-4.90449e+07 0.0932539 -1.26876e-09 7.87136e+07 1.04222e-09 -6.08749e+06)
(-4.90449e+07 -0.059927 1.91878e-09 7.87136e+07 2.08444e-09 -6.08749e+06)
(-4.90449e+07 0.106661 4.46892e-12 7.87136e+07 -1.04222e-09 -6.08749e+06)
(-4.90449e+07 -0.229811 -6.41081e-10 7.87136e+07 1.04222e-09 -6.08749e+06)
(-4.90449e+07 0.107279 1.92771e-09 7.87136e+07 -3.64434e-18 -6.08749e+06)
(-4.90449e+07 -0.0478512 -6.41081e-10 7.87136e+07 -1.04222e-09 -6.08749e+06)
(-4.90449e+07 0.156451 1.29557e-09 7.87136e+07 1.04222e-09 -6.08749e+06)
(-4.90449e+07 0.0377201 -4.75179e-18 7.87136e+07 2.08444e-09 -6.08749e+06)
(-4.90449e+07 0.0261699 1.28663e-09 7.87136e+07 1.04222e-09 -6.08749e+06)
(-4.90449e+07 -0.0638936 1.28663e-09 7.87136e+07 -1.04222e-09 -6.08749e+06)
(-4.90449e+07 0.0993881 6.36612e-10 7.87136e+07 -4.16887e-09 -6.08749e+06)
(-4.90449e+07 -0.271662 -2.55539e-09 7.87136e+07 9.69834e-18 -6.08749e+06)
(-4.90449e+07 0.242252 -6.72364e-10 7.87136e+07 2.59113e-17 -6.08749e+06)
(-4.90449e+07 -0.171412 -1.26876e-09 7.87136e+07 -1.04222e-09 -6.08749e+06)
(-4.90449e+07 0.0642141 -1.29557e-09 7.87136e+07 3.12665e-09 -6.08749e+06)
(-4.90449e+07 -0.126873 -4.46891e-12 7.87136e+07 1.04222e-09 -6.08749e+06)
(-4.90449e+07 -0.0372444 6.4555e-10 7.87136e+07 1.16487e-18 -6.08749e+06)
(-4.90449e+07 0.00842481 6.41081e-10 7.87136e+07 -1.04222e-09 -6.08749e+06)
(-4.90449e+07 0.00760314 4.46892e-12 7.87136e+07 -1.04222e-09 -6.08749e+06)
(-4.90449e+07 0.111486 0 7.87136e+07 0 -6.08749e+06)
(-4.90449e+07 -0.161702 -6.41081e-10 7.87136e+07 1.04222e-09 -6.08749e+06)
(-4.90449e+07 0.209643 -3.15984e-18 7.87136e+07 2.08444e-09 -6.08749e+06)
(-4.90449e+07 -0.233378 6.32144e-10 7.87136e+07 -1.04222e-09 -6.08749e+06)
(-4.90449e+07 0.160152 -6.36612e-10 7.87136e+07 -2.08444e-09 -6.08749e+06)
(-4.90449e+07 -0.229692 1.30004e-09 7.87136e+07 2.08444e-09 -6.08749e+06)
(-4.90449e+07 0.0452094 1.26429e-09 7.87136e+07 -2.08444e-09 -6.08749e+06)
(-4.90449e+07 -0.057135 -1.26429e-09 7.87136e+07 -2.08444e-09 -6.08749e+06)
(-4.90449e+07 0.106586 -6.63426e-10 7.87136e+07 2.85633e-17 -6.08749e+06)
(-4.90449e+07 -0.157871 -1.90984e-09 7.87136e+07 2.08444e-09 -6.08749e+06)
(-4.90449e+07 0.268871 1.27322e-09 7.87136e+07 4.16887e-09 -6.08749e+06)
(-4.90449e+07 -0.161258 -8.93783e-12 7.87136e+07 -2.08444e-09 -6.08749e+06)
(-4.90449e+07 0.0992808 -6.32144e-10 7.87136e+07 -1.04222e-09 -6.08749e+06)
(-4.90449e+07 -0.0698581 -6.50019e-10 7.87136e+07 1.04222e-09 -6.08749e+06)
(-4.90449e+07 0.0487065 6.41081e-10 7.87136e+07 -1.04222e-09 -6.08749e+06)
(-4.90449e+07 -0.102449 -6.41081e-10 7.87136e+07 -1.04222e-09 -6.08749e+06)
(-4.90449e+07 0.0307845 -8.93784e-12 7.87136e+07 -2.08444e-09 -6.08749e+06)
(-4.90449e+07 -0.0745833 -1.28216e-09 7.87136e+07 -2.08444e-09 -6.08749e+06)
(-4.90449e+07 0.00749679 -2.57326e-09 7.87136e+07 2.08444e-09 -6.08749e+06)
(-4.90449e+07 0.102038 -1.2911e-09 7.87136e+07 4.16887e-09 -6.08749e+06)
(-4.90449e+07 -0.156847 1.27322e-09 7.87136e+07 -9.17143e-18 -6.08749e+06)
(-4.90449e+07 0.0180232 1.78757e-11 7.87136e+07 -3.98315e-18 -6.08749e+06)
(-4.90449e+07 0.131748 1.28216e-09 7.87136e+07 2.08444e-09 -6.08749e+06)
(-4.90449e+07 -0.0327532 -8.93783e-12 7.87136e+07 -2.08444e-09 -6.08749e+06)
(-4.90449e+07 -0.0192821 -6.27675e-10 7.87136e+07 2.27772e-17 -6.08749e+06)
(-4.90449e+07 -0.0152365 1.28216e-09 7.87136e+07 2.08444e-09 -6.08749e+06)
(-4.90449e+07 0.166184 0 7.87136e+07 0 -6.08749e+06)
(-4.90449e+07 -0.146668 6.36612e-10 7.87136e+07 -2.08444e-09 -6.08749e+06)
(-4.90449e+07 0.0780811 -1.08732e-17 7.87136e+07 -4.16887e-09 -6.08749e+06)
(-4.90449e+07 -0.149025 -1.92771e-09 7.87136e+07 -2.08444e-09 -6.08749e+06)
(-4.90449e+07 0.135687 -1.93665e-09 7.87136e+07 3.80034e-17 -6.08749e+06)
(-4.90449e+07 -0.0361634 -1.92324e-09 7.87136e+07 3.12665e-09 -6.08749e+06)
(-4.90449e+07 0.0131975 6.27675e-10 7.87136e+07 2.08444e-09 -6.08749e+06)
(-4.90449e+07 0.122405 -1.28216e-09 7.87136e+07 1.28945e-17 -6.08749e+06)
(-4.90449e+07 -0.20022 -6.4555e-10 7.87136e+07 2.08444e-09 -6.08749e+06)
(-4.90449e+07 0.255117 2.56879e-09 7.87136e+07 -1.04222e-09 -6.08749e+06)
(-4.90449e+07 -0.0697926 1.78757e-11 7.87136e+07 -2.71238e-19 -6.08749e+06)
(-4.90449e+07 -0.0507419 -2.68135e-11 7.87136e+07 -2.08444e-09 -6.08749e+06)
(-4.90449e+07 -0.0953848 -1.9009e-09 7.87136e+07 -2.18569e-17 -6.08749e+06)
(-4.90449e+07 0.156484 1.26429e-09 7.87136e+07 2.08444e-09 -6.08749e+06)
(-4.90449e+07 -0.0795934 -6.23206e-10 7.87136e+07 1.04222e-09 -6.08749e+06)
(-4.90449e+07 0.109668 6.09799e-10 7.87136e+07 -2.08444e-09 -6.08749e+06)
(-4.90449e+07 -0.211357 -1.89643e-09 7.87136e+07 -1.04222e-09 -6.08749e+06)
(-4.90449e+07 0.00792575 1.26876e-09 7.87136e+07 3.12665e-09 -6.08749e+06)
(-4.90449e+07 -0.188373 6.54488e-10 7.87136e+07 4.59459e-18 -6.08749e+06)
(-4.90449e+07 0.251567 -8.93783e-12 7.87136e+07 6.15992e-18 -6.08749e+06)
(-4.90449e+07 -0.284281 6.50019e-10 7.87136e+07 -1.04222e-09 -6.08749e+06)
(-4.90449e+07 0.26097 -6.50019e-10 7.87136e+07 -1.04222e-09 -6.08749e+06)
(-4.90449e+07 -0.174777 -4.46891e-12 7.87136e+07 -3.12665e-09 -6.08749e+06)
(-4.90449e+07 0.232569 -2.55539e-09 7.87136e+07 2.08444e-09 -6.08749e+06)
(-4.90449e+07 -0.107318 6.18737e-10 7.87136e+07 2.08444e-09 -6.08749e+06)
(-4.90449e+07 -0.0049714 8.93783e-12 7.87136e+07 -2.08444e-09 -6.08749e+06)
(-4.90449e+07 -0.0359345 1.30004e-09 7.87136e+07 2.08444e-09 -6.08749e+06)
(-4.90449e+07 -0.0352178 -1.34067e-11 7.87136e+07 1.04222e-09 -6.08749e+06)
(-4.90449e+07 -0.00692289 -1.56932e-18 7.87136e+07 -2.08444e-09 -6.08749e+06)
(-4.90449e+07 -0.0841843 -6.41081e-10 7.87136e+07 -1.04222e-09 -6.08749e+06)
(-4.90449e+07 0.0258674 -6.4555e-10 7.87136e+07 4.75602e-18 -6.08749e+06)
(-4.90449e+07 0.130157 4.46891e-12 7.87136e+07 1.04222e-09 -6.08749e+06)
(-4.90449e+07 -0.0755221 1.92771e-09 7.87136e+07 -1.93806e-17 -6.08749e+06)
(-4.90449e+07 0.0966904 8.93783e-12 7.87136e+07 -2.84294e-18 -6.08749e+06)
(-4.90449e+07 -0.0937037 6.27675e-10 7.87136e+07 -2.08444e-09 -6.08749e+06)
(-4.90449e+07 0.0738939 -1.25535e-09 7.87136e+07 2.08444e-09 -6.08749e+06)
(-4.90449e+07 -0.104426 1.89196e-09 7.87136e+07 -2.09585e-17 -6.08749e+06)
(-4.90449e+07 0.0808126 -1.90537e-09 7.87136e+07 -3.12665e-09 -6.08749e+06)
(-4.90449e+07 0.00275465 -8.93783e-12 7.87136e+07 2.08444e-09 -6.08749e+06)
(-4.90449e+07 -0.0713999 4.46892e-12 7.87136e+07 1.04222e-09 -6.08749e+06)
(-4.90449e+07 0.0218866 6.4555e-10 7.87136e+07 2.08444e-09 -6.08749e+06)
(-4.90449e+07 -0.0411958 6.23206e-10 7.87136e+07 -3.12665e-09 -6.08749e+06)
(-4.90449e+07 0.0512383 3.57513e-11 7.87136e+07 -2.42976e-17 -6.08749e+06)
(-4.90449e+07 0.0912113 6.18737e-10 7.87136e+07 2.08444e-09 -6.08749e+06)
(-4.90449e+07 -0.0967611 -6.27675e-10 7.87136e+07 1.10118e-17 -6.08749e+06)
(-4.90449e+07 0.169351 1.27322e-09 7.87136e+07 3.19897e-18 -6.08749e+06)
(-4.90449e+07 -0.0901788 2.38474e-18 7.87136e+07 -4.16887e-09 -6.08749e+06)
(-4.90449e+07 0.0919649 -1.26429e-09 7.87136e+07 2.08444e-09 -6.08749e+06)
(-4.90449e+07 -0.084915 -1.78757e-11 7.87136e+07 4.16887e-09 -6.08749e+06)
(-4.90449e+07 -0.0207841 2.57326e-09 7.87136e+07 -2.08444e-09 -6.08749e+06)
(-4.90449e+07 -0.0122617 -6.32144e-10 7.87136e+07 -1.04222e-09 -6.08749e+06)
(-4.90449e+07 -0.122976 3.99724e-18 7.87136e+07 2.08444e-09 -6.08749e+06)
(-4.90449e+07 0.1944 6.32144e-10 7.87136e+07 -1.04222e-09 -6.08749e+06)
(-4.90449e+07 -0.0778366 -6.4555e-10 7.87136e+07 -4.16887e-09 -6.08749e+06)
(-4.90449e+07 0.0538838 2.23446e-11 7.87136e+07 1.04222e-09 -6.08749e+06)
(-4.90449e+07 -0.110404 -6.58957e-10 7.87136e+07 3.12665e-09 -6.08749e+06)
(-4.90449e+07 0.0930791 0 7.87136e+07 0 -6.08749e+06)
(-4.90449e+07 -0.0581255 -4.46892e-12 7.87136e+07 -1.04222e-09 -6.08749e+06)
(-4.90449e+07 -0.00768838 -4.46892e-12 7.87136e+07 -3.12665e-09 -6.08749e+06)
(-4.90449e+07 -0.0753438 -1.26876e-09 7.87136e+07 1.04222e-09 -6.08749e+06)
(-4.90449e+07 0.160571 6.27675e-10 7.87136e+07 2.08444e-09 -6.08749e+06)
(-4.90449e+07 -0.0238736 -4.46891e-12 7.87136e+07 -3.12665e-09 -6.08749e+06)
(-4.90449e+07 -0.0356325 -1.27322e-09 7.87136e+07 -5.72149e-18 -6.08749e+06)
(-4.90449e+07 0.0270158 -8.93783e-12 7.87136e+07 2.08444e-09 -6.08749e+06)
(-4.80777e+07 -0.039223 -6.41877e-10 7.71785e+07 4.43594e-19 -5.90271e+06)
(-4.80777e+07 0.055398 -1.28056e-09 7.71785e+07 -2.01817e-09 -5.90271e+06)
(-4.80777e+07 -0.0566948 -4.73729e-13 7.71785e+07 6.66384e-18 -5.90271e+06)
(-4.80777e+07 0.0769515 -4.32112e-12 7.71785e+07 3.02725e-09 -5.90271e+06)
(-4.80777e+07 -0.117621 -1.29512e-09 7.71785e+07 -2.01817e-09 -5.90271e+06)
(-4.80777e+07 0.0858603 6.50046e-10 7.71785e+07 -3.6476e-17 -5.90271e+06)
(-4.80777e+07 -0.0453133 -2.00073e-11 7.71785e+07 1.4068e-17 -5.90271e+06)
(-4.80777e+07 0.0821786 1.40879e-11 7.71785e+07 1.10511e-17 -5.90271e+06)
(-4.80777e+07 0.00291825 -6.59162e-10 7.71785e+07 2.01817e-09 -5.90271e+06)
(-4.80777e+07 0.0306002 6.3436e-10 7.71785e+07 -1.00908e-09 -5.90271e+06)
(-4.80777e+07 -0.0509096 -1.18388e-11 7.71785e+07 -4.20744e-18 -5.90271e+06)
(-4.80777e+07 0.0774891 1.92835e-09 7.71785e+07 2.01817e-09 -5.90271e+06)
(-4.80777e+07 -0.165196 -1.26872e-09 7.71785e+07 2.01817e-09 -5.90271e+06)
(-4.80777e+07 0.133217 -6.446e-10 7.71785e+07 -2.01817e-09 -5.90271e+06)
(-4.80777e+07 -0.132089 -1.89651e-09 7.71785e+07 1.49868e-17 -5.90271e+06)
(-4.80777e+07 0.0506542 -1.12456e-12 7.71785e+07 1.00908e-09 -5.90271e+06)
(-4.80777e+07 -0.072822 -3.72389e-18 7.71785e+07 -2.01817e-09 -5.90271e+06)
(-4.80777e+07 -0.0107025 6.40279e-10 7.71785e+07 -1.00908e-09 -5.90271e+06)
(-4.80777e+07 0.00016179 -6.47797e-10 7.71785e+07 2.38447e-18 -5.90271e+06)
(-4.80777e+07 -0.0180263 -1.28375e-09 7.71785e+07 7.34565e-18 -5.90271e+06)
(-4.80777e+07 0.0730722 4.32112e-12 7.71785e+07 1.00908e-09 -5.90271e+06)
(-4.80777e+07 -0.104094 -1.28216e-09 7.71785e+07 1.00908e-09 -5.90271e+06)
(-4.80777e+07 0.131426 6.41877e-10 7.71785e+07 -7.94145e-18 -5.90271e+06)
(-4.80777e+07 -0.154472 6.35958e-10 7.71785e+07 3.01472e-18 -5.90271e+06)
(-4.80777e+07 0.111871 -6.48921e-10 7.71785e+07 -3.02725e-09 -5.90271e+06)
(-4.80777e+07 -0.137225 -6.3211e-10 7.71785e+07 -1.00908e-09 -5.90271e+06)
(-4.80777e+07 0.0483477 6.21396e-10 7.71785e+07 2.01817e-09 -5.90271e+06)
(-4.80777e+07 -0.0620069 -2.55135e-09 7.71785e+07 1.00908e-09 -5.90271e+06)
(-4.80777e+07 0.0774968 -6.40279e-10 7.71785e+07 1.00908e-09 -5.90271e+06)
(-4.80777e+07 -0.104901 1.34371e-11 7.71785e+07 -1.00908e-09 -5.90271e+06)
(-4.80777e+07 0.152745 1.28488e-09 7.71785e+07 1.00908e-09 -5.90271e+06)
(-4.80777e+07 -0.10471 1.27079e-09 7.71785e+07 1.00908e-09 -5.90271e+06)
(-4.80777e+07 0.0813611 1.45616e-11 7.71785e+07 2.64309e-18 -5.90271e+06)
(-4.80777e+07 -0.053682 -7.04395e-12 7.71785e+07 -1.00908e-09 -5.90271e+06)
(-4.80777e+07 0.0372231 7.04395e-12 7.71785e+07 -1.00908e-09 -5.90271e+06)
(-4.80777e+07 -0.061386 -2.72283e-12 7.71785e+07 1.26129e-19 -5.90271e+06)
(-4.80777e+07 0.0257698 4.32112e-12 7.71785e+07 -1.00908e-09 -5.90271e+06)
(-4.80777e+07 -0.0405667 -1.26327e-09 7.71785e+07 2.01817e-09 -5.90271e+06)
(-4.80777e+07 -0.00771353 -1.26872e-09 7.71785e+07 2.01817e-09 -5.90271e+06)
(-4.80777e+07 0.0549906 3.19658e-12 7.71785e+07 -2.01817e-09 -5.90271e+06)
(-4.80777e+07 -0.0623792 2.56431e-09 7.71785e+07 -2.01817e-09 -5.90271e+06)
(-4.80777e+07 0.0225061 0 7.71785e+07 0 -5.90271e+06)
(-4.80777e+07 0.0541583 1.28056e-09 7.71785e+07 2.01817e-09 -5.90271e+06)
(-4.80777e+07 -0.0125796 -1.29634e-11 7.71785e+07 1.00908e-09 -5.90271e+06)
(-4.80777e+07 0.0212802 5.9194e-12 7.71785e+07 -2.01817e-09 -5.90271e+06)
(-4.80777e+07 -0.018032 -6.40753e-10 7.71785e+07 1.00908e-09 -5.90271e+06)
(-4.80777e+07 0.0932874 1.27079e-09 7.71785e+07 1.00908e-09 -5.90271e+06)
(-4.80777e+07 -0.0804652 -5.91941e-12 7.71785e+07 -2.01817e-09 -5.90271e+06)
(-4.80777e+07 0.0806728 -1.27511e-09 7.71785e+07 1.59752e-17 -5.90271e+06)
(-4.80777e+07 -0.0836966 1.34371e-11 7.71785e+07 1.00908e-09 -5.90271e+06)
(-4.80777e+07 0.0845643 -1.90787e-09 7.71785e+07 3.17071e-17 -5.90271e+06)
(-4.80777e+07 -0.0170556 -1.91219e-09 7.71785e+07 -1.00908e-09 -5.90271e+06)
(-4.80777e+07 0.00659835 -6.34833e-10 7.71785e+07 1.00908e-09 -5.90271e+06)
(-4.80777e+07 0.0924163 -1.28056e-09 7.71785e+07 2.01817e-09 -5.90271e+06)
(-4.80777e+07 -0.105076 -1.13651e-11 7.71785e+07 -4.03634e-09 -5.90271e+06)
(-4.80777e+07 0.141746 1.286e-09 7.71785e+07 -2.01817e-09 -5.90271e+06)
(-4.80777e+07 -0.0543413 -2.56751e-09 7.71785e+07 4.03634e-09 -5.90271e+06)
(-4.80777e+07 0.017609 6.28914e-10 7.71785e+07 1.00908e-09 -5.90271e+06)
(-4.80777e+07 -0.0532741 -2.54975e-09 7.71785e+07 -2.01817e-09 -5.90271e+06)
(-4.80777e+07 0.0814423 1.28056e-09 7.71785e+07 -1.8733e-17 -5.90271e+06)
(-4.80777e+07 -0.0731725 -1.27784e-09 7.71785e+07 2.01817e-09 -5.90271e+06)
(-4.80777e+07 0.0724697 1.91107e-09 7.71785e+07 -4.44376e-17 -5.90271e+06)
(-4.80777e+07 -0.120839 -1.90787e-09 7.71785e+07 -2.01817e-09 -5.90271e+06)
(-4.80777e+07 0.045282 6.3436e-10 7.71785e+07 -1.00908e-09 -5.90271e+06)
(-4.80777e+07 -0.13456 6.446e-10 7.71785e+07 2.01817e-09 -5.90271e+06)
(-4.80777e+07 0.153703 2.55022e-09 7.71785e+07 -6.80246e-17 -5.90271e+06)
(-4.80777e+07 -0.178304 -6.30512e-10 7.71785e+07 -1.77664e-17 -5.90271e+06)
(-4.80777e+07 0.17709 -1.13651e-11 7.71785e+07 -2.95839e-19 -5.90271e+06)
(-4.80777e+07 -0.127441 -1.26647e-09 7.71785e+07 2.63471e-17 -5.90271e+06)
(-4.80777e+07 0.140359 -1.91492e-09 7.71785e+07 1.00908e-09 -5.90271e+06)
(-4.80777e+07 -0.0669959 -5.9194e-12 7.71785e+07 -2.01817e-09 -5.90271e+06)
(-4.80777e+07 0.0241872 -6.46198e-10 7.71785e+07 -3.02725e-09 -5.90271e+06)
(-4.80777e+07 -0.0185162 -1.26967e-09 7.71785e+07 2.01817e-09 -5.90271e+06)
(-4.80777e+07 -0.0167427 1.26215e-09 7.71785e+07 3.02725e-09 -5.90271e+06)
(-4.80777e+07 0.00419876 6.46198e-10 7.71785e+07 -1.00908e-09 -5.90271e+06)
(-4.80777e+07 -0.0261123 5.91941e-12 7.71785e+07 2.49945e-18 -5.90271e+06)
(-4.80777e+07 0.00743598 1.59829e-12 7.71785e+07 -1.00908e-09 -5.90271e+06)
(-4.80777e+07 0.0634607 -4.32112e-12 7.71785e+07 -3.02725e-09 -5.90271e+06)
(-4.80777e+07 -0.0509453 6.41404e-10 7.71785e+07 3.72756e-18 -5.90271e+06)
(-4.80777e+07 0.0713876 1.27511e-09 7.71785e+07 2.01817e-09 -5.90271e+06)
(-4.80777e+07 -0.0606191 6.35958e-10 7.71785e+07 -3.84483e-18 -5.90271e+06)
(-4.80777e+07 0.0564538 -1.91379e-09 7.71785e+07 1.65368e-17 -5.90271e+06)
(-4.80777e+07 -0.060467 6.2844e-10 7.71785e+07 1.00908e-09 -5.90271e+06)
(-4.80777e+07 0.0470452 9.11597e-12 7.71785e+07 -2.82875e-18 -5.90271e+06)
(-4.80777e+07 -0.00439142 4.32112e-12 7.71785e+07 -1.00908e-09 -5.90271e+06)
(-4.80777e+07 -0.0285374 -6.41877e-10 7.71785e+07 1.36167e-18 -5.90271e+06)
(-4.80777e+07 0.0263897 -1.59828e-12 7.71785e+07 1.00908e-09 -5.90271e+06)
(-4.80777e+07 -0.0185739 6.18673e-10 7.71785e+07 -2.01817e-09 -5.90271e+06)
(-4.80777e+07 0.0196842 2.59267e-11 7.71785e+07 -1.33854e-17 -5.90271e+06)
(-4.80777e+07 0.0559369 6.22994e-10 7.71785e+07 3.02725e-09 -5.90271e+06)
(-4.80777e+07 -0.0541148 -6.40279e-10 7.71785e+07 -1.00908e-09 -5.90271e+06)
(-4.80777e+07 0.100896 2.55999e-09 7.71785e+07 -1.00908e-09 -5.90271e+06)
(-4.80777e+07 -0.0648814 -6.41877e-10 7.71785e+07 1.93715e-18 -5.90271e+06)
(-4.80777e+07 0.0608686 -1.26327e-09 7.71785e+07 2.01817e-09 -5.90271e+06)
(-4.80777e+07 -0.0474714 6.15951e-10 7.71785e+07 -2.01817e-09 -5.90271e+06)
(-4.80777e+07 -0.00539716 1.29032e-09 7.71785e+07 -1.00908e-09 -5.90271e+06)
(-4.80777e+07 0.0101252 -7.04395e-12 7.71785e+07 3.02725e-09 -5.90271e+06)
(-4.80777e+07 -0.0727881 0 7.71785e+07 0 -5.90271e+06)
(-4.80777e+07 0.0979135 2.56159e-09 7.71785e+07 -1.63769e-17 -5.90271e+06)
(-4.80777e+07 -0.0644828 -7.04396e-12 7.71785e+07 -3.02725e-09 -5.90271e+06)
(-4.80777e+07 0.0528095 -1.25351e-09 7.71785e+07 1.00908e-09 -5.90271e+06)
(-4.80777e+07 -0.0670371 6.26191e-10 7.71785e+07 3.02725e-09 -5.90271e+06)
(-4.80777e+07 0.0528973 -6.37556e-10 7.71785e+07 -1.00908e-09 -5.90271e+06)
(-4.80777e+07 -0.0424102 -6.46198e-10 7.71785e+07 -1.00908e-09 -5.90271e+06)
(-4.80777e+07 0.0215144 -6.37556e-10 7.71785e+07 -1.00908e-09 -5.90271e+06)
(-4.80777e+07 -0.047205 -1.27192e-09 7.71785e+07 -4.35691e-18 -5.90271e+06)
(-4.80777e+07 0.075677 6.35958e-10 7.71785e+07 -8.05802e-18 -5.90271e+06)
(-4.80777e+07 -0.0212172 0 7.71785e+07 0 -5.90271e+06)
(-4.80777e+07 -0.00512969 -1.27192e-09 7.71785e+07 -3.28319e-18 -5.90271e+06)
(-4.80777e+07 0.0178242 0 7.71785e+07 0 -5.90271e+06)
(-4.6674e+07 -0.0221122 1.60709e-12 7.55766e+07 -9.75787e-10 -5.70948e+06)
(-4.6674e+07 0.0127301 8.26441e-12 7.55766e+07 -4.78924e-18 -5.70948e+06)
(-4.6674e+07 -0.03574 -2.51487e-09 7.55766e+07 -6.05542e-18 -5.70948e+06)
(-4.6674e+07 0.0334029 -1.24951e-09 7.55766e+07 9.75787e-10 -5.70948e+06)
(-4.6674e+07 -0.00202174 1.88208e-09 7.55766e+07 -2.24467e-18 -5.70948e+06)
(-4.6674e+07 0.0428882 -1.24217e-09 7.55766e+07 -1.95157e-09 -5.70948e+06)
(-4.6674e+07 -0.0292852 -6.36695e-10 7.55766e+07 2.79777e-18 -5.70948e+06)
(-4.6674e+07 0.00684053 -1.24217e-09 7.55766e+07 1.95157e-09 -5.70948e+06)
(-4.6674e+07 -0.0236678 6.24298e-10 7.55766e+07 9.75787e-10 -5.70948e+06)
(-4.6674e+07 0.0260817 1.27591e-09 7.55766e+07 9.32594e-20 -5.70948e+06)
(-4.6674e+07 -0.0248979 -9.18243e-12 7.55766e+07 -2.92736e-09 -5.70948e+06)
(-4.6674e+07 0.0373481 1.33146e-11 7.55766e+07 -1.95157e-09 -5.70948e+06)
(-4.6674e+07 -0.0370392 1.25043e-09 7.55766e+07 3.90315e-09 -5.70948e+06)
(-4.6674e+07 0.0154295 -1.23966e-11 7.55766e+07 9.75787e-10 -5.70948e+06)
(-4.6674e+07 -0.061933 5.7393e-12 7.55766e+07 -1.95157e-09 -5.70948e+06)
(-4.6674e+07 0.0212772 1.2587e-09 7.55766e+07 -7.34715e-18 -5.70948e+06)
(-4.6674e+07 -0.0193285 6.22691e-10 7.55766e+07 -3.91606e-18 -5.70948e+06)
(-4.6674e+07 0.00717996 1.23966e-11 7.55766e+07 9.75787e-10 -5.70948e+06)
(-4.6674e+07 -0.00966979 3.21419e-12 7.55766e+07 1.95157e-09 -5.70948e+06)
(-4.6674e+07 -0.0360503 2.52704e-09 7.55766e+07 -1.95157e-09 -5.70948e+06)
(-4.6674e+07 0.0144799 1.65288e-11 7.55766e+07 9.61304e-18 -5.70948e+06)
(-4.6674e+07 -0.0398074 6.20166e-10 7.55766e+07 -1.38508e-17 -5.70948e+06)
(-4.6674e+07 0.0314967 1.89952e-09 7.55766e+07 -9.75787e-10 -5.70948e+06)
(-4.6674e+07 -0.0558143 6.26823e-10 7.55766e+07 9.75787e-10 -5.70948e+06)
(-4.6674e+07 0.0393289 -6.30955e-10 7.55766e+07 3.82905e-18 -5.70948e+06)
(-4.6674e+07 -0.03396 -1.24469e-09 7.55766e+07 -1.53157e-17 -5.70948e+06)
(-4.6674e+07 0.0339597 9.87151e-12 7.55766e+07 9.75787e-10 -5.70948e+06)
(-4.6674e+07 -0.0491701 3.21417e-12 7.55766e+07 4.9364e-18 -5.70948e+06)
(-4.6674e+07 0.0306901 6.22691e-10 7.55766e+07 -3.90315e-09 -5.70948e+06)
(-4.6674e+07 -0.0394819 6.34399e-10 7.55766e+07 -9.75787e-10 -5.70948e+06)
(-4.6674e+07 0.022092 -8.26442e-12 7.55766e+07 1.95157e-09 -5.70948e+06)
(-4.6674e+07 -0.0374674 -1.14786e-11 7.55766e+07 -7.12602e-18 -5.70948e+06)
(-4.6674e+07 0.0377031 6.29348e-10 7.55766e+07 9.75787e-10 -5.70948e+06)
(-4.6674e+07 -0.0308346 -9.8715e-12 7.55766e+07 9.75787e-10 -5.70948e+06)
(-4.6674e+07 0.0172855 -1.2603e-09 7.55766e+07 -9.75787e-10 -5.70948e+06)
(-4.6674e+07 -0.0148931 6.29348e-10 7.55766e+07 -9.75787e-10 -5.70948e+06)
(-4.6674e+07 0.0125693 0 7.55766e+07 0 -5.70948e+06)
(-4.6674e+07 -0.00375767 1.26191e-09 7.55766e+07 -7.35116e-18 -5.70948e+06)
(-4.6674e+07 -0.0155221 1.25043e-09 7.55766e+07 -1.39806e-17 -5.70948e+06)
(-4.6674e+07 -0.00208431 -1.9743e-11 7.55766e+07 -1.95157e-09 -5.70948e+06)
(-4.6674e+07 0.0169514 1.26696e-09 7.55766e+07 -2.01355e-17 -5.70948e+06)
(-4.6674e+07 0.012076 -8.26441e-12 7.55766e+07 1.95157e-09 -5.70948e+06)
(-4.6674e+07 -0.0172301 8.26441e-12 7.55766e+07 1.95157e-09 -5.70948e+06)
(-4.6674e+07 0.000269683 1.24538e-09 7.55766e+07 -3.99457e-17 -5.70948e+06)
(-4.6674e+07 0.037679 -6.16034e-10 7.55766e+07 9.75787e-10 -5.70948e+06)
(-4.6674e+07 -0.0172393 -7.57535e-12 7.55766e+07 1.30339e-17 -5.70948e+06)
(-4.6674e+07 0.0112326 1.27109e-09 7.55766e+07 -9.75787e-10 -5.70948e+06)
(-4.6674e+07 -0.0163962 -6.3348e-10 7.55766e+07 1.95157e-09 -5.70948e+06)
(-4.6674e+07 0.0511299 -5.05024e-12 7.55766e+07 -3.90315e-09 -5.70948e+06)
(-4.6674e+07 -0.0125686 -6.19248e-10 7.55766e+07 -9.75787e-10 -5.70948e+06)
(-4.6674e+07 0.018426 6.18559e-10 7.55766e+07 2.92736e-09 -5.70948e+06)
(-4.6674e+07 -0.00214629 6.35088e-10 7.55766e+07 9.75787e-10 -5.70948e+06)
(-4.6674e+07 -0.00424067 7.34639e-12 7.55766e+07 9.75787e-10 -5.70948e+06)
(-4.6674e+07 0.0352715 -4.13221e-12 7.55766e+07 -9.75787e-10 -5.70948e+06)
(-4.6674e+07 -0.0114708 1.25617e-09 7.55766e+07 -1.95157e-09 -5.70948e+06)
(-4.6674e+07 0.0149305 -1.22977e-09 7.55766e+07 2.92736e-09 -5.70948e+06)
(-4.6674e+07 -0.0315078 -5.96827e-12 7.55766e+07 9.75787e-10 -5.70948e+06)
(-4.6674e+07 0.0555478 1.2727e-09 7.55766e+07 -1.95157e-09 -5.70948e+06)
(-4.6674e+07 -0.0154674 -6.37613e-10 7.55766e+07 -9.75787e-10 -5.70948e+06)
(-4.6674e+07 0.000863126 1.65288e-11 7.55766e+07 -3.34202e-17 -5.70948e+06)
(-4.6674e+07 -0.0535506 6.20166e-10 7.55766e+07 -3.8166e-17 -5.70948e+06)
(-4.6674e+07 0.0190291 9.18026e-13 7.55766e+07 -9.75787e-10 -5.70948e+06)
(-4.6674e+07 -0.0279727 6.26823e-10 7.55766e+07 9.75787e-10 -5.70948e+06)
(-4.6674e+07 0.0517311 1.6071e-12 7.55766e+07 -9.75787e-10 -5.70948e+06)
(-4.6674e+07 -0.0596844 -4.13221e-12 7.55766e+07 -2.92736e-09 -5.70948e+06)
(-4.6674e+07 0.0326516 1.26375e-09 7.55766e+07 1.95157e-09 -5.70948e+06)
(-4.6674e+07 -0.0547576 -9.18244e-12 7.55766e+07 2.92736e-09 -5.70948e+06)
(-4.6674e+07 0.0567455 1.26444e-09 7.55766e+07 -9.52444e-18 -5.70948e+06)
(-4.6674e+07 -0.0599602 -1.2587e-09 7.55766e+07 1.15807e-17 -5.70948e+06)
(-4.6674e+07 0.0261681 1.26444e-09 7.55766e+07 -2.76215e-17 -5.70948e+06)
(-4.6674e+07 -0.0282939 6.2843e-10 7.55766e+07 -1.53723e-17 -5.70948e+06)
(-4.6674e+07 0.0280892 -1.24791e-09 7.55766e+07 1.09694e-17 -5.70948e+06)
(-4.6674e+07 -0.00643227 -1.25135e-09 7.55766e+07 -9.75787e-10 -5.70948e+06)
(-4.6674e+07 -0.00180036 1.2587e-09 7.55766e+07 -1.95157e-09 -5.70948e+06)
(-4.6674e+07 0.00587556 6.25216e-10 7.55766e+07 -1.39674e-18 -5.70948e+06)
(-4.6674e+07 0.0146753 -6.36695e-10 7.55766e+07 6.59587e-18 -5.70948e+06)
(-4.6674e+07 -0.013922 6.25216e-10 7.55766e+07 -5.89428e-18 -5.70948e+06)
(-4.6674e+07 -0.00186213 -1.26191e-09 7.55766e+07 1.11987e-17 -5.70948e+06)
(-4.6674e+07 -0.0180272 -1.2587e-09 7.55766e+07 -1.95157e-09 -5.70948e+06)
(-4.6674e+07 0.0290218 5.05023e-12 7.55766e+07 2.81661e-17 -5.70948e+06)
(-4.6674e+07 -0.0178028 -4.13221e-12 7.55766e+07 2.92736e-09 -5.70948e+06)
(-4.6674e+07 0.0279672 5.7393e-12 7.55766e+07 1.95157e-09 -5.70948e+06)
(-4.6674e+07 -0.0111807 -9.18243e-12 7.55766e+07 -2.92736e-09 -5.70948e+06)
(-4.6674e+07 0.00446784 6.38531e-10 7.55766e+07 -1.95157e-09 -5.70948e+06)
(-4.6674e+07 -0.00810027 -4.1322e-12 7.55766e+07 2.92736e-09 -5.70948e+06)
(-4.6674e+07 0.0119535 -1.2603e-09 7.55766e+07 9.75787e-10 -5.70948e+06)
(-4.6674e+07 0.0171079 -1.25617e-09 7.55766e+07 3.19118e-18 -5.70948e+06)
(-4.6674e+07 0.00630016 6.18559e-10 7.55766e+07 -2.92736e-09 -5.70948e+06)
(-4.6674e+07 -0.00830973 -1.23712e-09 7.55766e+07 1.47228e-17 -5.70948e+06)
(-4.6674e+07 0.014109 6.18559e-10 7.55766e+07 2.92736e-09 -5.70948e+06)
(-4.6674e+07 -0.0085789 6.18559e-10 7.55766e+07 -2.92736e-09 -5.70948e+06)
(-4.6674e+07 0.0236413 1.33147e-11 7.55766e+07 -1.78998e-17 -5.70948e+06)
(-4.6674e+07 -0.0253615 -1.2727e-09 7.55766e+07 1.95157e-09 -5.70948e+06)
(-4.6674e+07 0.0195837 8.26442e-12 7.55766e+07 -1.0257e-17 -5.70948e+06)
(-4.6674e+07 -0.00595011 1.24791e-09 7.55766e+07 1.03449e-18 -5.70948e+06)
(-4.6674e+07 0.00506207 -1.2463e-09 7.55766e+07 -9.75787e-10 -5.70948e+06)
(-4.6674e+07 0.0195409 -6.32562e-10 7.55766e+07 9.75787e-10 -5.70948e+06)
(-4.6674e+07 -0.014276 6.14427e-10 7.55766e+07 -1.95157e-09 -5.70948e+06)
(-4.6674e+07 0.00109394 6.34399e-10 7.55766e+07 -9.75787e-10 -5.70948e+06)
(-4.6674e+07 -0.0364337 6.16952e-10 7.55766e+07 1.95157e-09 -5.70948e+06)
(-4.6674e+07 0.0337828 -1.25043e-09 7.55766e+07 5.13314e-18 -5.70948e+06)
(-4.6674e+07 -0.0181924 1.2587e-09 7.55766e+07 1.95157e-09 -5.70948e+06)
(-4.6674e+07 0.0112399 6.2843e-10 7.55766e+07 1.95157e-09 -5.70948e+06)
(-4.6674e+07 -0.018985 6.32562e-10 7.55766e+07 -9.75787e-10 -5.70948e+06)
(-4.6674e+07 0.0344189 -1.25617e-09 7.55766e+07 -1.95157e-09 -5.70948e+06)
(-4.6674e+07 -0.0153824 4.13221e-12 7.55766e+07 -9.75787e-10 -5.70948e+06)
(-4.6674e+07 -0.0052631 -1.26191e-09 7.55766e+07 2.44392e-18 -5.70948e+06)
(-4.6674e+07 -0.0124468 0 7.55766e+07 0 -5.70948e+06)
(-4.6674e+07 0.0169304 0 7.55766e+07 0 -5.70948e+06)
(-4.6674e+07 0.0043192 0 7.55766e+07 0 -5.70948e+06)
(-4.55663e+07 -0.0154302 -6.29696e-10 7.40934e+07 -2.41201e-18 -5.53573e+06)
(-4.55663e+07 0.00351375 7.95548e-12 7.40934e+07 1.88977e-09 -5.53573e+06)
(-4.55663e+07 -0.0239098 6.21741e-10 7.40934e+07 1.88977e-09 -5.53573e+06)
(-4.55663e+07 0.0235129 -4.70997e-12 7.40934e+07 -3.77954e-09 -5.53573e+06)
(-4.55663e+07 0.0140673 1.24966e-09 7.40934e+07 -1.88977e-09 -5.53573e+06)
(-4.55663e+07 0.0285378 -1.24819e-09 7.40934e+07 3.77954e-09 -5.53573e+06)
(-4.55663e+07 -0.0236181 -4.70997e-12 7.40934e+07 -1.64444e-18 -5.53573e+06)
(-4.55663e+07 -0.0103256 1.25615e-09 7.40934e+07 -1.88977e-09 -5.53573e+06)
(-4.55663e+07 -0.0288846 -1.91565e-11 7.40934e+07 -1.88977e-09 -5.53573e+06)
(-4.55663e+07 0.0176423 6.23205e-10 7.40934e+07 9.52365e-18 -5.53573e+06)
(-4.55663e+07 -0.0159152 2.47723e-09 7.40934e+07 1.88977e-09 -5.53573e+06)
(-4.55663e+07 0.0259608 -1.23699e-09 7.40934e+07 -1.52538e-18 -5.53573e+06)
(-4.55663e+07 -0.00972349 7.95548e-12 7.40934e+07 1.88977e-09 -5.53573e+06)
(-4.55663e+07 -0.00161816 -1.5911e-11 7.40934e+07 1.61026e-17 -5.53573e+06)
(-4.55663e+07 -0.0366418 -6.21741e-10 7.40934e+07 -1.88977e-09 -5.53573e+06)
(-4.55663e+07 0.0133913 0 7.40934e+07 0 -5.53573e+06)
(-4.55663e+07 -0.00517845 -6.29696e-10 7.40934e+07 8.25024e-19 -5.53573e+06)
(-4.55663e+07 0.00781286 0 7.40934e+07 0 -5.53573e+06)
(-4.55663e+07 -0.0113112 1.22108e-09 7.40934e+07 -3.77954e-09 -5.53573e+06)
(-4.55663e+07 -0.033913 1.24641e-09 7.40934e+07 -2.01502e-17 -5.53573e+06)
(-4.55663e+07 -0.00111689 -1.2641e-09 7.40934e+07 3.77954e-09 -5.53573e+06)
(-4.55663e+07 -0.025887 -1.91565e-11 7.40934e+07 -1.88977e-09 -5.53573e+06)
(-4.55663e+07 0.0085482 -1.24348e-09 7.40934e+07 2.01022e-17 -5.53573e+06)
(-4.55663e+07 -0.0284931 -6.29696e-10 7.40934e+07 3.77954e-09 -5.53573e+06)
(-4.55663e+07 0.021202 6.13785e-10 7.40934e+07 4.32669e-18 -5.53573e+06)
(-4.55663e+07 -0.0103066 6.26451e-10 7.40934e+07 -1.88977e-09 -5.53573e+06)
(-4.55663e+07 0.027428 6.18495e-10 7.40934e+07 -2.81155e-18 -5.53573e+06)
(-4.55663e+07 -0.0338535 1.23699e-09 7.40934e+07 -3.31576e-18 -5.53573e+06)
(-4.55663e+07 0.0162835 -6.29696e-10 7.40934e+07 8.86697e-18 -5.53573e+06)
(-4.55663e+07 -0.0244654 1.1201e-11 7.40934e+07 1.92023e-18 -5.53573e+06)
(-4.55663e+07 -0.00617859 7.95547e-12 7.40934e+07 1.88977e-09 -5.53573e+06)
(-4.55663e+07 -0.0219945 -4.70998e-12 7.40934e+07 4.46314e-18 -5.53573e+06)
(-4.55663e+07 0.0181601 1.5911e-11 7.40934e+07 -1.82915e-17 -5.53573e+06)
(-4.55663e+07 -0.0187086 -6.26451e-10 7.40934e+07 1.88977e-09 -5.53573e+06)
(-4.55663e+07 0.00939364 6.21741e-10 7.40934e+07 -1.88977e-09 -5.53573e+06)
(-4.55663e+07 -0.00262514 7.95548e-12 7.40934e+07 -1.88977e-09 -5.53573e+06)
(-4.55663e+07 0.00999657 -7.95548e-12 7.40934e+07 -1.88977e-09 -5.53573e+06)
(-4.55663e+07 0.00227039 4.70997e-12 7.40934e+07 -7.10106e-18 -5.53573e+06)
(-4.55663e+07 -0.0109473 -1.24819e-09 7.40934e+07 3.77954e-09 -5.53573e+06)
(-4.55663e+07 -0.00845197 -1.26654e-11 7.40934e+07 -1.88977e-09 -5.53573e+06)
(-4.55663e+07 0.0227259 -1.22433e-09 7.40934e+07 -1.88977e-09 -5.53573e+06)
(-4.55663e+07 0.00680645 -7.95548e-12 7.40934e+07 1.88977e-09 -5.53573e+06)
(-4.55663e+07 -0.0239226 0 7.40934e+07 0 -5.53573e+06)
(-4.55663e+07 0.00289364 1.24495e-09 7.40934e+07 1.88977e-09 -5.53573e+06)
(-4.55663e+07 0.0303937 -4.70997e-12 7.40934e+07 4.33086e-18 -5.53573e+06)
(-4.55663e+07 -0.0120008 3.11163e-09 7.40934e+07 -1.88977e-09 -5.53573e+06)
(-4.55663e+07 -0.00203478 7.95548e-12 7.40934e+07 1.88977e-09 -5.53573e+06)
(-4.55663e+07 0.00181048 1.23228e-09 7.40934e+07 1.36659e-18 -5.53573e+06)
(-4.55663e+07 0.0370526 1.2529e-09 7.40934e+07 -8.64752e-18 -5.53573e+06)
(-4.55663e+07 0.00301599 -1.2417e-09 7.40934e+07 9.52408e-18 -5.53573e+06)
(-4.55663e+07 0.0063756 6.26451e-10 7.40934e+07 -1.88977e-09 -5.53573e+06)
(-4.55663e+07 -0.000924431 6.18495e-10 7.40934e+07 -1.07733e-17 -5.53573e+06)
(-4.55663e+07 -0.00516377 -3.2455e-12 7.40934e+07 1.88977e-09 -5.53573e+06)
(-4.55663e+07 0.0161558 1.23228e-09 7.40934e+07 -8.5623e-19 -5.53573e+06)
(-4.55663e+07 0.00238801 6.26451e-10 7.40934e+07 -1.88977e-09 -5.53573e+06)
(-4.55663e+07 -0.00606954 0 7.40934e+07 0 -5.53573e+06)
(-4.55663e+07 -0.019948 2.47398e-09 7.40934e+07 -2.30361e-17 -5.53573e+06)
(-4.55663e+07 0.0488824 6.26451e-10 7.40934e+07 1.88977e-09 -5.53573e+06)
(-4.55663e+07 -0.00454472 1.23228e-09 7.40934e+07 5.31047e-18 -5.53573e+06)
(-4.55663e+07 -0.0102848 7.95548e-12 7.40934e+07 -1.88977e-09 -5.53573e+06)
(-4.55663e+07 -0.0360305 1.24495e-09 7.40934e+07 1.88977e-09 -5.53573e+06)