/*--------------------------------*- C++ -*----------------------------------*\
| =========                 |                                                 |
| \\      /  F ield         | OpenFOAM: The Open Source CFD Toolbox           |
|  \\    /   O peration     | Version:  2312                                  |
|   \\  /    A nd           | Website:  www.openfoam.com                      |
|    \\/     M anipulation  |                                                 |
\*---------------------------------------------------------------------------*/
FoamFile
{
    version     2.0;
    format      ascii;
    arch        "LSB;label=32;scalar=64";
    class       volTensorField;
    location    "80";
    object      F;
}
// * * * * * * * * * * * * * * * * * * * * * * * * * * * * * * * * * * * * * //

dimensions      [0 0 0 0 0 0 0];

internalField   nonuniform List<tensor> 
12870
(
(0.803566 -0.00494537 1.17243e-19 -0.00494537 1.49615 -2.71849e-17 0 0 1)
(0.803848 -0.0148321 -1.11988e-17 -0.0148321 1.49587 1.33557e-17 0 0 1)
(0.804413 -0.0247067 1.5519e-17 -0.0247067 1.4953 2.77566e-17 0 0 1)
(0.805259 -0.0345611 7.17451e-19 -0.0345611 1.49446 -1.35736e-17 0 0 1)
(0.806387 -0.0443874 -6.37422e-18 -0.0443874 1.49333 1.32105e-17 0 0 1)
(0.807794 -0.0541775 1.65256e-17 -0.0541775 1.49192 1.30059e-18 0 0 1)
(0.809481 -0.0639233 -4.22917e-18 -0.0639233 1.49023 -1.4045e-17 0 0 1)
(0.811445 -0.0736171 9.62397e-18 -0.0736171 1.48827 1.47055e-17 0 0 1)
(0.813685 -0.0832508 -3.29162e-18 -0.0832508 1.48603 2.6985e-17 0 0 1)
(0.8162 -0.0928165 9.12396e-18 -0.0928165 1.48351 1.4964e-17 0 0 1)
(0.818986 -0.102307 1.29702e-17 -0.102307 1.48073 -1.17873e-17 0 0 1)
(0.822043 -0.111713 1.42892e-17 -0.111713 1.47767 -5.27437e-17 0 0 1)
(0.825366 -0.121029 -2.1625e-17 -0.121029 1.47435 -3.90158e-18 0 0 1)
(0.828955 -0.130246 -5.67464e-18 -0.130246 1.47076 -1.10771e-18 0 0 1)
(0.832805 -0.139356 -7.88276e-18 -0.139356 1.46691 -1.55451e-17 0 0 1)
(0.836914 -0.148353 -1.98212e-17 -0.148353 1.4628 3.7337e-17 0 0 1)
(0.841278 -0.157229 -3.21048e-18 -0.157229 1.45844 1.3208e-17 0 0 1)
(0.845894 -0.165977 5.37874e-18 -0.165977 1.45382 1.37284e-18 0 0 1)
(0.850757 -0.174589 8.87073e-18 -0.174589 1.44896 -1.16815e-17 0 0 1)
(0.855865 -0.183059 3.77319e-18 -0.183059 1.44385 -1.30584e-17 0 0 1)
(0.861212 -0.19138 0 -0.19138 1.4385 0 0 0 1)
(0.866795 -0.199544 -9.36288e-18 -0.199544 1.43292 1.12909e-17 0 0 1)
(0.872608 -0.207546 -8.58503e-18 -0.207546 1.42711 2.57939e-17 0 0 1)
(0.878648 -0.215378 9.60891e-18 -0.215378 1.42107 -1.10442e-17 0 0 1)
(0.884909 -0.223035 4.17541e-18 -0.223035 1.41481 -2.74146e-17 0 0 1)
(0.891386 -0.23051 7.64373e-19 -0.23051 1.40833 2.9384e-17 0 0 1)
(0.898074 -0.237797 2.01462e-17 -0.237797 1.40164 -2.12451e-17 0 0 1)
(0.904967 -0.24489 3.59057e-19 -0.24489 1.39475 -2.92762e-17 0 0 1)
(0.91206 -0.251783 -5.23892e-18 -0.251783 1.38765 -2.25821e-18 0 0 1)
(0.919347 -0.258471 -2.61034e-17 -0.258471 1.38037 1.80929e-17 0 0 1)
(0.926822 -0.264948 -1.30122e-17 -0.264948 1.37289 5.39135e-17 0 0 1)
(0.934479 -0.271209 1.17509e-17 -0.271209 1.36524 -2.45143e-17 0 0 1)
(0.942311 -0.277249 1.22334e-18 -0.277249 1.3574 -1.4588e-17 0 0 1)
(0.950313 -0.283063 -1.12193e-17 -0.283063 1.3494 9.49354e-18 0 0 1)
(0.958478 -0.288645 1.1286e-17 -0.288645 1.34124 -9.36872e-18 0 0 1)
(0.966798 -0.293993 1.77978e-18 -0.293993 1.33292 -1.45595e-17 0 0 1)
(0.975268 -0.2991 1.34698e-17 -0.2991 1.32445 -2.36135e-17 0 0 1)
(0.983881 -0.303964 4.38964e-18 -0.303964 1.31583 -2.90055e-17 0 0 1)
(0.992628 -0.308579 -3.30712e-17 -0.308579 1.30709 1.16173e-17 0 0 1)
(1.0015 -0.312943 -3.84499e-17 -0.312943 1.29821 4.00122e-17 0 0 1)
(1.0105 -0.317052 9.16808e-18 -0.317052 1.28921 5.98489e-18 0 0 1)
(1.01961 -0.320902 1.27504e-19 -0.320902 1.2801 8.58553e-20 0 0 1)
(1.02883 -0.324491 -6.44768e-18 -0.324491 1.27089 2.86185e-17 0 0 1)
(1.03814 -0.327815 1.5759e-17 -0.327815 1.26157 -2.21514e-17 0 0 1)
(1.04755 -0.330871 -4.34387e-18 -0.330871 1.25216 -3.20364e-18 0 0 1)
(1.05704 -0.333658 -7.6674e-18 -0.333658 1.24267 2.83161e-17 0 0 1)
(1.06661 -0.336172 0 -0.336172 1.23311 0 0 0 1)
(1.07624 -0.338412 2.13203e-17 -0.338412 1.22347 -1.77324e-17 0 0 1)
(1.08593 -0.340376 3.47166e-17 -0.340376 1.21378 -4.18433e-17 0 0 1)
(1.09568 -0.342063 5.05028e-18 -0.342063 1.20403 -3.14374e-17 0 0 1)
(1.10547 -0.343471 -1.25077e-17 -0.343471 1.19424 -1.09953e-17 0 0 1)
(1.1153 -0.344598 -3.96215e-17 -0.344598 1.18442 1.91432e-17 0 0 1)
(1.12515 -0.345444 -1.4574e-17 -0.345444 1.17456 2.35745e-17 0 0 1)
(1.13503 -0.346009 -7.96139e-18 -0.346009 1.16469 -7.62743e-18 0 0 1)
(1.14491 -0.346292 -2.30382e-17 -0.346292 1.1548 1.54623e-17 0 0 1)
(1.1548 -0.346292 2.51874e-17 -0.346292 1.14491 6.1882e-18 0 0 1)
(1.16469 -0.346009 1.0634e-19 -0.346009 1.13503 1.10996e-19 0 0 1)
(1.17456 -0.345444 1.97395e-17 -0.345444 1.12515 -1.86931e-17 0 0 1)
(1.18442 -0.344598 -1.09666e-17 -0.344598 1.1153 -1.21214e-17 0 0 1)
(1.19424 -0.343471 -1.32395e-17 -0.343471 1.10547 2.6114e-17 0 0 1)
(1.20403 -0.342063 -1.38162e-17 -0.342063 1.09568 4.7526e-18 0 0 1)
(1.21378 -0.340376 2.42699e-17 -0.340376 1.08593 -1.33227e-17 0 0 1)
(1.22347 -0.338412 3.51151e-19 -0.338412 1.07624 -2.12267e-17 0 0 1)
(1.23311 -0.336172 -2.53894e-17 -0.336172 1.06661 3.37227e-17 0 0 1)
(1.24267 -0.333658 3.40484e-18 -0.333658 1.05704 4.48128e-18 0 0 1)
(1.25216 -0.330871 -4.56187e-20 -0.330871 1.04755 -6.1855e-20 0 0 1)
(1.26157 -0.327815 1.43065e-17 -0.327815 1.03814 -3.36534e-18 0 0 1)
(1.27089 -0.324491 7.97731e-18 -0.324491 1.02883 -1.23435e-17 0 0 1)
(1.2801 -0.320902 3.38028e-17 -0.320902 1.01961 -2.28076e-17 0 0 1)
(1.28921 -0.317052 -3.47758e-17 -0.317052 1.0105 -3.54026e-18 0 0 1)
(1.29821 -0.312943 -2.01294e-17 -0.312943 1.0015 1.90301e-17 0 0 1)
(1.30709 -0.308579 2.32192e-17 -0.308579 0.992628 -1.41386e-17 0 0 1)
(1.31583 -0.303964 -1.76751e-17 -0.303964 0.983881 2.3486e-17 0 0 1)
(1.32445 -0.2991 -1.1845e-17 -0.2991 0.975268 6.66825e-18 0 0 1)
(1.33292 -0.293993 2.37661e-17 -0.293993 0.966798 -1.31984e-17 0 0 1)
(1.34124 -0.288645 9.36872e-18 -0.288645 0.958478 -1.1286e-17 0 0 1)
(1.3494 -0.283063 -2.55543e-18 -0.283063 0.950313 -4.92801e-18 0 0 1)
(1.3574 -0.277249 -1.21376e-17 -0.277249 0.942311 6.11861e-18 0 0 1)
(1.36524 -0.271209 7.20758e-18 -0.271209 0.934479 1.49277e-17 0 0 1)
(1.37289 -0.264948 3.24262e-20 -0.264948 0.926822 6.96824e-20 0 0 1)
(1.38037 -0.258471 2.70155e-17 -0.258471 0.919347 -6.19065e-18 0 0 1)
(1.38765 -0.251783 -2.92376e-17 -0.251783 0.91206 8.47649e-19 0 0 1)
(1.39475 -0.24489 6.22597e-18 -0.24489 0.904967 1.50308e-17 0 0 1)
(1.40164 -0.237797 3.18393e-17 -0.237797 0.898074 -3.02907e-17 0 0 1)
(1.40833 -0.23051 -2.54299e-17 -0.23051 0.891386 9.61e-18 0 0 1)
(1.41481 -0.223035 -1.27559e-17 -0.223035 0.884909 4.69515e-18 0 0 1)
(1.42107 -0.215378 -2.38406e-17 -0.215378 0.878648 1.4194e-17 0 0 1)
(1.42711 -0.207546 4.03832e-17 -0.207546 0.872608 -7.79275e-18 0 0 1)
(1.43292 -0.199544 9.29115e-20 -0.199544 0.866795 2.93055e-19 0 0 1)
(1.4385 -0.19138 -2.44931e-17 -0.19138 0.861212 1.29392e-17 0 0 1)
(1.44385 -0.183059 -1.48362e-18 -0.183059 0.855865 -5.18955e-18 0 0 1)
(1.44896 -0.174589 2.85888e-18 -0.174589 0.850757 1.05688e-17 0 0 1)
(1.45382 -0.165977 5.26812e-17 -0.165977 0.845894 -1.34461e-17 0 0 1)
(1.45844 -0.157229 -2.89719e-17 -0.157229 0.841278 -4.22516e-18 0 0 1)
(1.4628 -0.148353 -5.30774e-17 -0.148353 0.836914 1.17863e-17 0 0 1)
(1.46691 -0.139356 3.11535e-17 -0.139356 0.832805 1.60664e-17 0 0 1)
(1.47076 -0.130246 1.22993e-17 -0.130246 0.828955 -7.93935e-18 0 0 1)
(1.47435 -0.121029 -2.67531e-17 -0.121029 0.825366 4.82679e-18 0 0 1)
(1.47767 -0.111713 1.42983e-17 -0.111713 0.822043 3.14061e-18 0 0 1)
(1.48073 -0.102307 5.29308e-17 -0.102307 0.818986 -1.36106e-17 0 0 1)
(1.48351 -0.0928165 -1.34417e-17 -0.0928165 0.8162 2.02869e-18 0 0 1)
(1.48603 -0.0832508 -4.11637e-17 -0.0832508 0.813685 -6.87344e-19 0 0 1)
(1.48827 -0.0736171 0 -0.0736171 0.811445 0 0 0 1)
(1.49023 -0.0639233 1.35305e-17 -0.0639233 0.809481 -1.29811e-18 0 0 1)
(1.49192 -0.0541775 4.06489e-17 -0.0541775 0.807794 -3.23768e-18 0 0 1)
(1.49333 -0.0443874 -1.42651e-17 -0.0443874 0.806387 -1.00148e-17 0 0 1)
(1.49446 -0.0345611 -2.68815e-17 -0.0345611 0.805259 6.74886e-18 0 0 1)
(1.4953 -0.0247067 4.07502e-17 -0.0247067 0.804413 -1.49385e-18 0 0 1)
(1.49587 -0.0148321 -2.34501e-19 -0.0148321 0.803848 -1.09461e-17 0 0 1)
(1.49615 -0.00494537 -2.71849e-17 -0.00494537 0.803566 1.17243e-19 0 0 1)
(0.80667 -0.00485446 -5.53994e-18 -0.00485446 1.48652 -3.95557e-20 0 0 1)
(0.806948 -0.0145594 -1.0487e-17 -0.0145594 1.48624 -2.65178e-17 0 0 1)
(0.807502 -0.0242525 -4.08618e-21 -0.0242525 1.48569 -1.45851e-22 0 0 1)
(0.808333 -0.0339258 -2.00717e-18 -0.0339258 1.48486 3.93796e-17 0 0 1)
(0.809439 -0.0435715 -9.46714e-18 -0.0435715 1.48375 -2.69507e-17 0 0 1)
(0.810821 -0.0531816 5.59329e-18 -0.0531816 1.48237 4.40201e-19 0 0 1)
(0.812477 -0.0627483 -1.71941e-19 -0.0627483 1.48072 -1.60053e-20 0 0 1)
(0.814405 -0.0722638 1.20897e-19 -0.0722638 1.47879 1.29979e-20 0 0 1)
(0.816604 -0.0817204 -8.8303e-18 -0.0817204 1.47659 2.54048e-17 0 0 1)
(0.819072 -0.0911104 7.20248e-18 -0.0911104 1.47412 -1.22823e-17 0 0 1)
(0.821807 -0.100426 -1.01035e-19 -0.100426 1.47139 -1.52637e-20 0 0 1)
(0.824808 -0.10966 1.21223e-17 -0.10966 1.46838 2.86544e-17 0 0 1)
(0.82807 -0.118804 -1.54438e-17 -0.118804 1.46512 2.39252e-17 0 0 1)
(0.831593 -0.127851 -4.24232e-19 -0.127851 1.4616 -2.68661e-17 0 0 1)
(0.835372 -0.136795 -1.60192e-17 -0.136795 1.45782 -3.36516e-18 0 0 1)
(0.839405 -0.145626 -2.89496e-18 -0.145626 1.45379 1.28208e-17 0 0 1)
(0.843689 -0.154339 6.1366e-18 -0.154339 1.4495 -2.55608e-17 0 0 1)
(0.84822 -0.162926 8.60511e-18 -0.162926 1.44497 -1.13686e-17 0 0 1)
(0.852994 -0.17138 -5.3972e-18 -0.17138 1.4402 -1.45995e-18 0 0 1)
(0.858008 -0.179694 -1.06534e-17 -0.179694 1.43518 -3.04565e-18 0 0 1)
(0.863257 -0.187862 -3.75721e-18 -0.187862 1.42994 1.25951e-17 0 0 1)
(0.868737 -0.195876 -1.45211e-17 -0.195876 1.42446 9.18448e-18 0 0 1)
(0.874444 -0.203731 5.25657e-18 -0.203731 1.41875 1.74955e-18 0 0 1)
(0.880372 -0.211419 5.18281e-18 -0.211419 1.41282 1.80761e-18 0 0 1)
(0.886518 -0.218935 8.25389e-18 -0.218935 1.40667 -3.89618e-17 0 0 1)
(0.892876 -0.226273 -4.17039e-19 -0.226273 1.40032 -1.42248e-17 0 0 1)
(0.899441 -0.233426 -4.72797e-18 -0.233426 1.39375 2.64088e-17 0 0 1)
(0.906208 -0.240388 -2.53744e-17 -0.240388 1.38698 3.71605e-18 0 0 1)
(0.91317 -0.247155 -1.02776e-17 -0.247155 1.38002 9.88249e-18 0 0 1)
(0.920323 -0.25372 5.48036e-18 -0.25372 1.37287 -1.19471e-17 0 0 1)
(0.927661 -0.260078 4.50929e-18 -0.260078 1.36553 1.65953e-17 0 0 1)
(0.935177 -0.266224 4.16236e-18 -0.266224 1.35802 1.66051e-17 0 0 1)
(0.942865 -0.272152 1.12388e-19 -0.272152 1.35033 5.62576e-20 0 0 1)
(0.95072 -0.277859 5.99654e-18 -0.277859 1.34247 -1.16961e-17 0 0 1)
(0.958735 -0.283339 6.27008e-18 -0.283339 1.33446 -1.15517e-17 0 0 1)
(0.966902 -0.288588 -2.05453e-20 -0.288588 1.32629 -1.14098e-20 0 0 1)
(0.975216 -0.293602 6.57701e-18 -0.293602 1.31798 -1.13797e-17 0 0 1)
(0.98367 -0.298376 -2.27906e-17 -0.298376 1.30952 1.70436e-17 0 0 1)
(0.992257 -0.302907 -2.30717e-17 -0.302907 1.30094 1.66919e-17 0 0 1)
(1.00097 -0.307191 1.40769e-17 -0.307191 1.29222 -2.22003e-17 0 0 1)
(1.0098 -0.311224 3.29027e-17 -0.311224 1.28339 -9.91359e-18 0 0 1)
(1.01874 -0.315004 0 -0.315004 1.27445 0 0 0 1)
(1.02779 -0.318526 -5.91332e-18 -0.318526 1.2654 2.78963e-17 0 0 1)
(1.03694 -0.321789 -7.74045e-18 -0.321789 1.25626 1.06231e-17 0 0 1)
(1.04617 -0.324789 1.56437e-17 -0.324789 1.24702 -2.11255e-17 0 0 1)
(1.05549 -0.327524 -1.23551e-17 -0.327524 1.23771 7.11969e-18 0 0 1)
(1.06488 -0.329992 5.37563e-19 -0.329992 1.22832 1.71104e-17 0 0 1)
(1.07433 -0.332191 1.64546e-17 -0.332191 1.21886 -2.05003e-17 0 0 1)
(1.08385 -0.33412 -8.46991e-18 -0.33412 1.20934 -7.02731e-18 0 0 1)
(1.09341 -0.335775 -8.44787e-18 -0.335775 1.19978 1.00698e-17 0 0 1)
(1.10302 -0.337157 -1.23676e-17 -0.337157 1.19017 -1.08721e-17 0 0 1)
(1.11267 -0.338264 -3.42076e-18 -0.338264 1.18052 -2.08193e-17 0 0 1)
(1.12234 -0.339094 -1.29665e-17 -0.339094 1.17085 5.88601e-18 0 0 1)
(1.13204 -0.339649 -2.61664e-17 -0.339649 1.16116 1.13355e-17 0 0 1)
(1.14174 -0.339926 3.68393e-17 -0.339926 1.15145 -3.75089e-17 0 0 1)
(1.15145 -0.339926 2.65124e-17 -0.339926 1.14174 -1.05502e-17 0 0 1)
(1.16116 -0.339649 -5.32938e-17 -0.339649 1.13204 2.03691e-17 0 0 1)
(1.17085 -0.339094 -5.92083e-18 -0.339094 1.12234 1.29291e-17 0 0 1)
(1.18052 -0.338264 4.72874e-18 -0.338264 1.11267 -3.39553e-17 0 0 1)
(1.19017 -0.337157 7.29735e-18 -0.337157 1.10302 8.30108e-18 0 0 1)
(1.19978 -0.335775 -2.71517e-17 -0.335775 1.09341 8.68554e-18 0 0 1)
(1.20934 -0.33412 1.05322e-17 -0.33412 1.08385 1.26942e-17 0 0 1)
(1.21886 -0.332191 1.01357e-17 -0.332191 1.07433 -2.93162e-17 0 0 1)
(1.22832 -0.329992 1.37251e-17 -0.329992 1.06488 -3.78836e-18 0 0 1)
(1.23771 -0.327524 -1.75651e-17 -0.327524 1.05549 2.03331e-17 0 0 1)
(1.24702 -0.324789 1.30646e-17 -0.324789 1.04617 1.77146e-17 0 0 1)
(1.25626 -0.321789 -3.1672e-18 -0.321789 1.03694 -4.42539e-18 0 0 1)
(1.2654 -0.318526 -5.59444e-20 -0.318526 1.02779 -8.05753e-20 0 0 1)
(1.27445 -0.315004 -6.10533e-18 -0.315004 1.01874 -9.06704e-18 0 0 1)
(1.28339 -0.311224 -2.00407e-17 -0.311224 1.0098 -6.65518e-18 0 0 1)
(1.29222 -0.307191 2.21877e-17 -0.307191 1.00097 -1.40968e-17 0 0 1)
(1.30094 -0.302907 3.0706e-17 -0.302907 0.992257 -2.5358e-17 0 0 1)
(1.30952 -0.298376 -2.81991e-17 -0.298376 0.98367 3.989e-18 0 0 1)
(1.31798 -0.293602 -2.87704e-17 -0.293602 0.975216 2.90811e-17 0 0 1)
(1.32629 -0.288588 1.41984e-17 -0.288588 0.966902 -1.5053e-18 0 0 1)
(1.33446 -0.283339 2.41644e-20 -0.283339 0.958735 4.5015e-20 0 0 1)
(1.34247 -0.277859 1.16744e-17 -0.277859 0.95072 -6.03827e-18 0 0 1)
(1.35033 -0.272152 3.52432e-17 -0.272152 0.942865 -1.76832e-17 0 0 1)
(1.35802 -0.266224 2.40706e-18 -0.266224 0.935177 4.9853e-18 0 0 1)
(1.36553 -0.260078 -1.91898e-17 -0.260078 0.927661 2.10686e-17 0 0 1)
(1.37287 -0.25372 2.2445e-18 -0.25372 0.920323 5.00911e-18 0 0 1)
(1.38002 -0.247155 -6.53846e-18 -0.247155 0.91317 -1.51689e-17 0 0 1)
(1.38698 -0.240388 -1.00673e-17 -0.240388 0.906208 1.0041e-17 0 0 1)
(1.39375 -0.233426 2.90687e-20 -0.233426 0.899441 7.31138e-20 0 0 1)
(1.40032 -0.226273 1.2295e-17 -0.226273 0.892876 -4.64616e-18 0 0 1)
(1.40667 -0.218935 -1.89895e-18 -0.218935 0.886518 -5.20447e-18 0 0 1)
(1.41282 -0.211419 -1.24149e-17 -0.211419 0.880372 4.31536e-18 0 0 1)
(1.41875 -0.203731 2.66282e-17 -0.203731 0.874444 -3.23491e-18 0 0 1)
(1.42446 -0.195876 6.76291e-20 -0.195876 0.868737 2.13311e-19 0 0 1)
(1.42994 -0.187862 -3.62015e-17 -0.187862 0.863257 1.65271e-17 0 0 1)
(1.43518 -0.179694 1.11182e-17 -0.179694 0.858008 -8.92624e-18 0 0 1)
(1.4402 -0.17138 1.84571e-17 -0.17138 0.852994 1.78969e-17 0 0 1)
(1.44497 -0.162926 -1.3701e-18 -0.162926 0.84822 -5.36799e-18 0 0 1)
(1.4495 -0.154339 -2.81061e-17 -0.154339 0.843689 -4.46552e-18 0 0 1)
(1.45379 -0.145626 2.68129e-17 -0.145626 0.839405 -5.84373e-19 0 0 1)
(1.45782 -0.136795 1.51524e-17 -0.136795 0.835372 8.19689e-18 0 0 1)
(1.4616 -0.127851 -3.87119e-17 -0.127851 0.831593 7.49476e-18 0 0 1)
(1.46512 -0.118804 0 -0.118804 0.82807 0 0 0 1)
(1.46838 -0.10966 3.61447e-18 -0.10966 0.824808 2.18118e-17 0 0 1)
(1.47139 -0.100426 3.89792e-17 -0.100426 0.821807 -5.95021e-18 0 0 1)
(1.47412 -0.0911104 -1.4486e-17 -0.0911104 0.819072 -8.9421e-18 0 0 1)
(1.47659 -0.0817204 -3.84861e-17 -0.0817204 0.816604 1.01393e-17 0 0 1)
(1.47879 -0.0722638 1.248e-17 -0.0722638 0.814405 -6.87624e-18 0 0 1)
(1.48072 -0.0627483 1.257e-17 -0.0627483 0.812477 -6.7716e-18 0 0 1)
(1.48237 -0.0531816 1.26713e-17 -0.0531816 0.810821 -6.51705e-18 0 0 1)
(1.48375 -0.0435715 -7.04958e-19 -0.0435715 0.809439 -1.09553e-17 0 0 1)
(1.48486 -0.0339258 2.74225e-19 -0.0339258 0.808333 5.48213e-18 0 0 1)
(1.48569 -0.0242525 0 -0.0242525 0.807502 0 0 0 1)
(1.48624 -0.0145594 -2.3513e-19 -0.0145594 0.806948 -1.09755e-17 0 0 1)
(1.48652 -0.00485446 0 -0.00485446 0.80667 0 0 0 1)
(0.811035 -0.00475705 1.04776e-19 -0.00475705 1.47725 -1.27158e-17 0 0 1)
(0.811307 -0.0142673 7.18917e-20 -0.0142673 1.47697 1.54009e-21 0 0 1)
(0.81185 -0.0237659 -2.18678e-17 -0.0237659 1.47643 -7.8101e-19 0 0 1)
(0.812664 -0.0332451 -1.14937e-17 -0.0332451 1.47562 1.21572e-17 0 0 1)
(0.813749 -0.0426971 1.6342e-17 -0.0426971 1.47453 1.05158e-18 0 0 1)
(0.815103 -0.0521144 -8.77931e-18 -0.0521144 1.47318 -2.6202e-17 0 0 1)
(0.816725 -0.0614892 -5.516e-18 -0.0614892 1.47156 -5.13469e-19 0 0 1)
(0.818615 -0.0708138 -1.34647e-17 -0.0708138 1.46967 2.41314e-17 0 0 1)
(0.82077 -0.0800806 3.85231e-18 -0.0800806 1.46751 1.32804e-17 0 0 1)
(0.823188 -0.0892821 1.09997e-17 -0.0892821 1.46509 1.50143e-18 0 0 1)
(0.825869 -0.0984109 5.61958e-18 -0.0984109 1.46241 -3.77325e-17 0 0 1)
(0.828809 -0.107459 4.27204e-18 -0.107459 1.45947 -2.50713e-17 0 0 1)
(0.832006 -0.11642 1.67586e-18 -0.11642 1.45627 5.19884e-17 0 0 1)
(0.835458 -0.125286 -2.54213e-18 -0.125286 1.45282 1.246e-17 0 0 1)
(0.839161 -0.13405 5.27734e-18 -0.13405 1.44912 -2.48789e-17 0 0 1)
(0.843113 -0.142704 1.06847e-17 -0.142704 1.44517 2.40433e-18 0 0 1)
(0.847311 -0.151242 5.2683e-18 -0.151242 1.44097 1.26481e-18 0 0 1)
(0.851751 -0.159656 -3.04029e-18 -0.159656 1.43653 1.23479e-17 0 0 1)
(0.85643 -0.167941 -6.61384e-18 -0.167941 1.43185 2.45574e-17 0 0 1)
(0.861343 -0.176088 2.81314e-17 -0.176088 1.42694 -1.84089e-17 0 0 1)
(0.866486 -0.184092 1.37698e-19 -0.184092 1.42179 4.15021e-20 0 0 1)
(0.871857 -0.191946 5.1437e-18 -0.191946 1.41642 1.63078e-18 0 0 1)
(0.877449 -0.199643 1.96976e-17 -0.199643 1.41083 -6.84604e-18 0 0 1)
(0.883259 -0.207177 9.62078e-19 -0.207177 1.40502 1.3803e-17 0 0 1)
(0.889281 -0.214542 -5.15733e-18 -0.214542 1.399 -1.88175e-18 0 0 1)
(0.895512 -0.221732 -1.01199e-17 -0.221732 1.39277 -3.85705e-18 0 0 1)
(0.901945 -0.228742 -4.61821e-18 -0.228742 1.38634 1.18483e-17 0 0 1)
(0.908575 -0.235565 2.58374e-20 -0.235565 1.37971 1.07023e-20 0 0 1)
(0.915398 -0.242196 2.51096e-17 -0.242196 1.37288 -4.45656e-17 0 0 1)
(0.922408 -0.248629 1.02371e-17 -0.248629 1.36587 -9.34736e-18 0 0 1)
(0.929598 -0.254859 -1.07951e-17 -0.254859 1.35868 2.30278e-17 0 0 1)
(0.936963 -0.260882 -8.99397e-20 -0.260882 1.35132 -4.34258e-20 0 0 1)
(0.944498 -0.266691 -7.95283e-19 -0.266691 1.34378 1.38223e-17 0 0 1)
(0.952195 -0.272284 -5.93003e-18 -0.272284 1.33609 1.12492e-17 0 0 1)
(0.960048 -0.277654 -3.64737e-18 -0.277654 1.32823 -1.63905e-17 0 0 1)
(0.968052 -0.282798 1.0961e-17 -0.282798 1.32023 -8.45837e-18 0 0 1)
(0.976199 -0.287711 0 -0.287711 1.31208 0 0 0 1)
(0.984484 -0.292389 9.44279e-18 -0.292389 1.3038 5.60267e-18 0 0 1)
(0.992898 -0.296829 9.27667e-18 -0.296829 1.29538 5.68475e-18 0 0 1)
(1.00144 -0.301027 1.34515e-17 -0.301027 1.28684 -2.15846e-17 0 0 1)
(1.01009 -0.304979 9.23098e-18 -0.304979 1.27819 6.02595e-18 0 0 1)
(1.01885 -0.308683 -1.42645e-17 -0.308683 1.26943 2.10555e-17 0 0 1)
(1.02772 -0.312134 -1.44456e-17 -0.312134 1.26056 2.09317e-17 0 0 1)
(1.03668 -0.315332 8.81176e-18 -0.315332 1.2516 6.30648e-18 0 0 1)
(1.04573 -0.318272 -1.18614e-17 -0.318272 1.24255 7.05254e-18 0 0 1)
(1.05486 -0.320952 -5.24825e-20 -0.320952 1.23342 -3.98756e-20 0 0 1)
(1.06406 -0.323371 1.65466e-17 -0.323371 1.22422 -3.19834e-18 0 0 1)
(1.07333 -0.325526 -2.02498e-17 -0.325526 1.21495 1.63442e-17 0 0 1)
(1.08265 -0.327415 3.24446e-17 -0.327415 1.20563 -3.91737e-17 0 0 1)
(1.09203 -0.329037 4.16142e-18 -0.329037 1.19625 -1.31687e-17 0 0 1)
(1.10144 -0.330391 -2.1145e-17 -0.330391 1.18684 3.22051e-17 0 0 1)
(1.1109 -0.331476 -4.43357e-18 -0.331476 1.17739 1.3137e-17 0 0 1)
(1.12037 -0.33229 -8.61827e-18 -0.33229 1.16791 9.35048e-18 0 0 1)
(1.12987 -0.332833 8.7711e-18 -0.332833 1.15841 -9.20711e-18 0 0 1)
(1.13938 -0.333105 2.56381e-17 -0.333105 1.1489 -1.04382e-17 0 0 1)
(1.1489 -0.333105 -3.4679e-17 -0.333105 1.13938 1.91619e-17 0 0 1)
(1.15841 -0.332833 -9.21816e-18 -0.332833 1.12987 8.75957e-18 0 0 1)
(1.16791 -0.33229 2.61597e-17 -0.33229 1.12037 -9.22533e-18 0 0 1)
(1.17739 -0.331476 5.70768e-18 -0.331476 1.1109 -1.26453e-17 0 0 1)
(1.18684 -0.330391 9.49536e-20 -0.330391 1.10144 1.08014e-19 0 0 1)
(1.19625 -0.329037 3.50444e-18 -0.329037 1.09203 4.10317e-18 0 0 1)
(1.20563 -0.327415 9.79152e-18 -0.327415 1.08265 -8.11345e-18 0 0 1)
(1.21495 -0.325526 -6.47918e-18 -0.325526 1.07333 1.22257e-17 0 0 1)
(1.22422 -0.323371 1.00229e-17 -0.323371 1.06406 -7.82581e-18 0 0 1)
(1.23342 -0.320952 3.03538e-17 -0.320952 1.05486 -2.31077e-17 0 0 1)
(1.24255 -0.318272 -1.39415e-17 -0.318272 1.04573 2.39447e-17 0 0 1)
(1.2516 -0.315332 -3.10687e-17 -0.315332 1.03668 2.21373e-17 0 0 1)
(1.26056 -0.312134 6.27457e-18 -0.312134 1.02772 9.03709e-18 0 0 1)
(1.26943 -0.308683 -6.11699e-18 -0.308683 1.01885 -9.08435e-18 0 0 1)
(1.27819 -0.304979 6.01394e-18 -0.304979 1.01009 9.21258e-18 0 0 1)
(1.28684 -0.301027 2.92327e-18 -0.301027 1.00144 4.62091e-18 0 0 1)
(1.29538 -0.296829 -5.67327e-18 -0.296829 0.992898 -9.25794e-18 0 0 1)
(1.3038 -0.292389 5.38033e-18 -0.292389 0.984484 -1.58525e-17 0 0 1)
(1.31208 -0.287711 2.75086e-17 -0.287711 0.976199 -3.16617e-18 0 0 1)
(1.32023 -0.282798 2.64112e-18 -0.282798 0.968052 4.75581e-18 0 0 1)
(1.32823 -0.277654 -2.62018e-18 -0.277654 0.960048 -4.88104e-18 0 0 1)
(1.33609 -0.272284 2.50424e-18 -0.272284 0.952195 4.82929e-18 0 0 1)
(1.34378 -0.266691 -4.91475e-18 -0.266691 0.944498 -9.81843e-18 0 0 1)
(1.35132 -0.260882 1.81407e-17 -0.260882 0.936963 -2.09205e-17 0 0 1)
(1.35868 -0.254859 1.85387e-20 -0.254859 0.929598 3.98396e-20 0 0 1)
(1.36587 -0.248629 -3.48282e-17 -0.248629 0.922408 1.55665e-17 0 0 1)
(1.37288 -0.242196 -2.33353e-17 -0.242196 0.915398 1.01129e-17 0 0 1)
(1.37971 -0.235565 3.52141e-17 -0.235565 0.908575 -1.46727e-17 0 0 1)
(1.38634 -0.228742 2.56857e-17 -0.228742 0.901945 -4.23331e-18 0 0 1)
(1.39277 -0.221732 -3.566e-17 -0.221732 0.895512 1.35528e-17 0 0 1)
(1.399 -0.214542 -1.57046e-17 -0.214542 0.889281 -5.94285e-18 0 0 1)
(1.40502 -0.207177 -3.59938e-18 -0.207177 0.883259 -1.03202e-17 0 0 1)
(1.41083 -0.199643 3.7896e-17 -0.199643 0.877449 -6.94069e-18 0 0 1)
(1.41642 -0.191946 -3.25311e-18 -0.191946 0.871857 -1.02607e-17 0 0 1)
(1.42179 -0.184092 -3.49725e-17 -0.184092 0.866486 1.61619e-17 0 0 1)
(1.42694 -0.176088 3.81585e-17 -0.176088 0.861343 -5.31136e-18 0 0 1)
(1.43185 -0.167941 3.02507e-20 -0.167941 0.85643 1.11831e-19 0 0 1)
(1.43653 -0.159656 -2.7381e-17 -0.159656 0.851751 -4.44011e-18 0 0 1)
(1.44097 -0.151242 1.67868e-20 -0.151242 0.847311 6.99213e-20 0 0 1)
(1.44517 -0.142704 2.38372e-18 -0.142704 0.843113 1.05931e-17 0 0 1)
(1.44912 -0.13405 1.02152e-17 -0.13405 0.839161 -1.32266e-17 0 0 1)
(1.45282 -0.125286 -1.35351e-17 -0.125286 0.835458 -2.96566e-18 0 0 1)
(1.45627 -0.11642 2.59775e-17 -0.11642 0.832006 7.45542e-19 0 0 1)
(1.45947 -0.107459 1.34475e-17 -0.107459 0.828809 3.36673e-18 0 0 1)
(1.46241 -0.0984109 -2.43452e-17 -0.0984109 0.825869 9.10689e-18 0 0 1)
(1.46509 -0.0892821 -1.47145e-18 -0.0892821 0.823188 -1.078e-17 0 0 1)
(1.46751 -0.0800806 -2.39192e-17 -0.0800806 0.82077 1.39507e-17 0 0 1)
(1.46967 -0.0708138 -2.47022e-17 -0.0708138 0.818615 8.15521e-18 0 0 1)
(1.47156 -0.0614892 1.31716e-17 -0.0614892 0.816725 4.30158e-18 0 0 1)
(1.47318 -0.0521144 2.44965e-17 -0.0521144 0.815103 -1.28916e-17 0 0 1)
(1.47453 -0.0426971 1.26923e-17 -0.0426971 0.813749 -7.80699e-19 0 0 1)
(1.47562 -0.0332451 -5.48541e-19 -0.0332451 0.812664 -1.09661e-17 0 0 1)
(1.47643 -0.0237659 0 -0.0237659 0.81185 0 0 0 1)
(1.47697 -0.0142673 0 -0.0142673 0.811307 0 0 0 1)
(1.47725 -0.00475705 0 -0.00475705 0.811035 0 0 0 1)
(0.81457 -0.0046676 -5.50958e-18 -0.0046676 1.46825 -3.9339e-20 0 0 1)
(0.814837 -0.013999 -4.57636e-19 -0.013999 1.46799 2.46116e-17 0 0 1)
(0.81537 -0.023319 4.55805e-18 -0.023319 1.46745 2.47943e-17 0 0 1)
(0.816168 -0.0326199 2.4184e-18 -0.0326199 1.46665 -4.91722e-17 0 0 1)
(0.817233 -0.0418943 1.24924e-17 -0.0418943 1.46559 -2.38628e-17 0 0 1)
(0.818561 -0.0511345 -1.47504e-17 -0.0511345 1.46426 4.82229e-17 0 0 1)
(0.820153 -0.0603329 -4.10339e-20 -0.0603329 1.46267 -3.81976e-21 0 0 1)
(0.822007 -0.0694822 1.35594e-17 -0.0694822 1.46082 -2.32999e-17 0 0 1)
(0.824121 -0.0785748 2.81414e-18 -0.0785748 1.4587 -2.4455e-17 0 0 1)
(0.826494 -0.0876033 5.40283e-18 -0.0876033 1.45633 7.37476e-19 0 0 1)
(0.829124 -0.0965604 1.7755e-17 -0.0965604 1.4537 2.75774e-17 0 0 1)
(0.832009 -0.105439 -1.06778e-17 -0.105439 1.45081 -1.76944e-18 0 0 1)
(0.835146 -0.114231 -4.30211e-18 -0.114231 1.44768 2.4237e-17 0 0 1)
(0.838533 -0.12293 -1.36639e-19 -0.12293 1.44429 -2.66722e-20 0 0 1)
(0.842167 -0.131529 -2.63322e-19 -0.131529 1.44066 -2.52084e-17 0 0 1)
(0.846045 -0.140021 0 -0.140021 1.43678 0 0 0 1)
(0.850164 -0.148398 -5.35749e-18 -0.148398 1.43266 -1.28622e-18 0 0 1)
(0.85452 -0.156654 0 -0.156654 1.4283 0 0 0 1)
(0.859111 -0.164783 2.31688e-17 -0.164783 1.42371 -4.47338e-17 0 0 1)
(0.863931 -0.172777 1.04858e-17 -0.172777 1.41889 2.99774e-18 0 0 1)
(0.868978 -0.18063 -2.47972e-17 -0.18063 1.41384 4.39453e-17 0 0 1)
(0.874248 -0.188336 7.27957e-18 -0.188336 1.40858 -2.35154e-17 0 0 1)
(0.879735 -0.195889 -1.03234e-17 -0.195889 1.40309 -3.43597e-18 0 0 1)
(0.885435 -0.203281 -2.14151e-17 -0.203281 1.39739 4.4671e-17 0 0 1)
(0.891345 -0.210508 5.04517e-18 -0.210508 1.39148 1.84082e-18 0 0 1)
(0.897458 -0.217563 1.38887e-17 -0.217563 1.38537 -2.10496e-17 0 0 1)
(0.90377 -0.224441 5.02884e-18 -0.224441 1.37905 1.99937e-18 0 0 1)
(0.910276 -0.231135 9.99955e-18 -0.231135 1.37255 4.14195e-18 0 0 1)
(0.916971 -0.237641 -5.05969e-18 -0.237641 1.36585 -2.18095e-18 0 0 1)
(0.923848 -0.243954 8.94383e-20 -0.243954 1.35897 4.00759e-20 0 0 1)
(0.930903 -0.250067 -1.03223e-17 -0.250067 1.35192 2.23471e-17 0 0 1)
(0.93813 -0.255976 -3.7112e-20 -0.255976 1.34469 -1.79188e-20 0 0 1)
(0.945523 -0.261677 1.24492e-19 -0.261677 1.3373 6.23161e-20 0 0 1)
(0.953075 -0.267164 -1.61977e-17 -0.267164 1.32975 1.93292e-17 0 0 1)
(0.960781 -0.272433 1.64357e-17 -0.272433 1.32204 -1.91154e-17 0 0 1)
(0.968634 -0.27748 1.20119e-17 -0.27748 1.31419 -2.14862e-17 0 0 1)
(0.976628 -0.282301 1.21968e-17 -0.282301 1.30619 -2.13818e-17 0 0 1)
(0.984757 -0.286891 3.54424e-20 -0.286891 1.29807 2.10288e-20 0 0 1)
(0.993013 -0.291247 -3.50355e-17 -0.291247 1.28981 3.62704e-17 0 0 1)
(1.00139 -0.295366 1.30665e-17 -0.295366 1.28143 -2.08619e-17 0 0 1)
(1.00988 -0.299244 4.48537e-18 -0.299244 1.27294 -2.64684e-17 0 0 1)
(1.01848 -0.302878 -1.38065e-17 -0.302878 1.26434 2.03794e-17 0 0 1)
(1.02718 -0.306265 0 -0.306265 1.25564 0 0 0 1)
(1.03597 -0.309402 -5.46809e-18 -0.309402 1.24685 2.63571e-17 0 0 1)
(1.04485 -0.312287 -3.31669e-20 -0.312287 1.23797 -2.44608e-20 0 0 1)
(1.05381 -0.314917 3.65707e-17 -0.314917 1.22901 -3.12887e-18 0 0 1)
(1.06284 -0.31729 -1.51156e-17 -0.31729 1.21999 1.94284e-17 0 0 1)
(1.07193 -0.319405 8.39549e-18 -0.319405 1.21089 6.76551e-18 0 0 1)
(1.08108 -0.321258 8.43688e-18 -0.321258 1.20174 6.99991e-18 0 0 1)
(1.09028 -0.32285 -8.26154e-18 -0.32285 1.19255 -7.05602e-18 0 0 1)
(1.09952 -0.324179 2.03691e-17 -0.324179 1.18331 -1.48688e-17 0 0 1)
(1.10879 -0.325243 4.01306e-18 -0.325243 1.17403 3.63071e-18 0 0 1)
(1.11809 -0.326042 -1.67944e-17 -0.326042 1.16473 1.79968e-17 0 0 1)
(1.12741 -0.326575 7.78573e-18 -0.326575 1.15541 7.45914e-18 0 0 1)
(1.13674 -0.326841 2.11847e-17 -0.326841 1.14608 -1.36817e-17 0 0 1)
(1.14608 -0.326841 0 -0.326841 1.13674 0 0 0 1)
(1.15541 -0.326575 1.49753e-17 -0.326575 1.12741 1.5631e-17 0 0 1)
(1.16473 -0.326042 -1.42811e-17 -0.326042 1.11809 2.07854e-17 0 0 1)
(1.17403 -0.325243 7.23377e-18 -0.325243 1.10879 7.99556e-18 0 0 1)
(1.18331 -0.324179 1.85338e-17 -0.324179 1.09952 -1.62e-17 0 0 1)
(1.19255 -0.32285 -1.16435e-17 -0.32285 1.09028 2.42698e-17 0 0 1)
(1.20174 -0.321258 -6.99991e-18 -0.321258 1.08108 -8.43688e-18 0 0 1)
(1.21089 -0.319405 2.94591e-17 -0.319405 1.07193 -2.67377e-18 0 0 1)
(1.21999 -0.31729 3.33517e-18 -0.31729 1.06284 4.26185e-18 0 0 1)
(1.22901 -0.314917 0 -0.314917 1.05381 0 0 0 1)
(1.23797 -0.312287 -6.42421e-18 -0.312287 1.04485 -8.7107e-18 0 0 1)
(1.24685 -0.309402 1.26554e-17 -0.309402 1.03597 1.76828e-17 0 0 1)
(1.25564 -0.306265 -1.0865e-17 -0.306265 1.02718 2.75125e-17 0 0 1)
(1.26434 -0.302878 -7.7758e-20 -0.302878 1.01848 -1.15479e-19 0 0 1)
(1.27294 -0.299244 2.95789e-17 -0.299244 1.00988 2.79404e-19 0 0 1)
(1.28143 -0.295366 -2.08178e-17 -0.295366 1.00139 1.31361e-17 0 0 1)
(1.28981 -0.291247 2.80608e-18 -0.291247 0.993013 4.57911e-18 0 0 1)
(1.29807 -0.286891 2.67283e-17 -0.286891 0.984757 -3.19253e-18 0 0 1)
(1.30619 -0.282301 0 -0.282301 0.976628 0 0 0 1)
(1.31419 -0.27748 -1.08814e-17 -0.27748 0.968634 3.11077e-17 0 0 1)
(1.32204 -0.272433 -1.94918e-20 -0.272433 0.960781 -3.63103e-20 0 0 1)
(1.32975 -0.267164 6.40876e-20 -0.267164 0.953075 1.2359e-19 0 0 1)
(1.3373 -0.261677 -1.8447e-20 -0.261677 0.945523 -3.68522e-20 0 0 1)
(1.34469 -0.255976 2.21974e-17 -0.255976 0.93813 -1.06403e-17 0 0 1)
(1.35192 -0.250067 -4.5664e-18 -0.250067 0.930903 -9.81299e-18 0 0 1)
(1.35897 -0.243954 4.46588e-18 -0.243954 0.923848 9.96663e-18 0 0 1)
(1.36585 -0.237641 6.46527e-18 -0.237641 0.916971 1.49991e-17 0 0 1)
(1.37255 -0.231135 8.32141e-18 -0.231135 0.910276 2.00896e-17 0 0 1)
(1.37905 -0.224441 -3.99874e-18 -0.224441 0.90377 -1.00577e-17 0 0 1)
(1.38537 -0.217563 -2.68666e-17 -0.217563 0.897458 -1.3735e-18 0 0 1)
(1.39148 -0.210508 -2.12599e-17 -0.210508 0.891345 1.3548e-17 0 0 1)
(1.39739 -0.203281 2.50342e-17 -0.203281 0.885435 -2.96971e-18 0 0 1)
(1.40309 -0.195889 2.85361e-17 -0.195889 0.879735 7.78972e-18 0 0 1)
(1.40858 -0.188336 -6.57171e-18 -0.188336 0.874248 -2.07281e-17 0 0 1)
(1.41384 -0.18063 4.71336e-18 -0.18063 0.868978 1.56383e-17 0 0 1)
(1.41889 -0.172777 4.48957e-18 -0.172777 0.863931 1.5704e-17 0 0 1)
(1.42371 -0.164783 -2.94216e-17 -0.164783 0.859111 -1.44957e-17 0 0 1)
(1.4283 -0.156654 1.32816e-18 -0.156654 0.85452 5.20368e-18 0 0 1)
(1.43266 -0.148398 2.65015e-17 -0.148398 0.850164 4.94093e-18 0 0 1)