/*--------------------------------*- C++ -*----------------------------------*\
| =========                 |                                                 |
| \\      /  F ield         | OpenFOAM: The Open Source CFD Toolbox           |
|  \\    /   O peration     | Version:  2312                                  |
|   \\  /    A nd           | Website:  www.openfoam.com                      |
|    \\/     M anipulation  |                                                 |
\*---------------------------------------------------------------------------*/
FoamFile
{
    version     2.0;
    format      ascii;
    arch        "LSB;label=32;scalar=64";
    class       volSymmTensorField;
    location    "80";
    object      sigma:Transformed;
}
// * * * * * * * * * * * * * * * * * * * * * * * * * * * * * * * * * * * * * //

dimensions      [1 -1 -2 0 0 0 0];

internalField   nonuniform List<symmTensor> 
12870
(
(-7.85814e+07 -0.0583721 -1.35247e-11 1.50376e+08 -3.65674e-09 -1.62279e+07)
(-7.85814e+07 0.12606 -1.91988e-09 1.50376e+08 1.82837e-09 -1.62279e+07)
(-7.85814e+07 -0.0672931 2.9035e-09 1.50376e+08 3.65674e-09 -1.62279e+07)
(-7.85814e+07 0.135755 6.76238e-12 1.50376e+08 -1.82837e-09 -1.62279e+07)
(-7.85814e+07 -0.323885 -9.70086e-10 1.50376e+08 1.82837e-09 -1.62279e+07)
(-7.85814e+07 0.133488 2.91702e-09 1.50376e+08 -3.39943e-18 -1.62279e+07)
(-7.85814e+07 -0.0535592 -9.70086e-10 1.50376e+08 -1.82837e-09 -1.62279e+07)
(-7.85814e+07 0.221537 1.96046e-09 1.50376e+08 1.82837e-09 -1.62279e+07)
(-7.85814e+07 0.0649369 -5.4227e-18 1.50376e+08 3.65674e-09 -1.62279e+07)
(-7.85814e+07 0.0242934 1.94693e-09 1.50376e+08 1.82837e-09 -1.62279e+07)
(-7.85814e+07 -0.080356 1.94693e-09 1.50376e+08 -1.82837e-09 -1.62279e+07)
(-7.85814e+07 0.119617 9.63323e-10 1.50376e+08 -7.31349e-09 -1.62279e+07)
(-7.85814e+07 -0.375594 -3.86682e-09 1.50376e+08 3.10516e-17 -1.62279e+07)
(-7.85814e+07 0.330169 -1.01742e-09 1.50376e+08 4.2442e-17 -1.62279e+07)
(-7.85814e+07 -0.222147 -1.91988e-09 1.50376e+08 -1.82837e-09 -1.62279e+07)
(-7.85814e+07 0.07311 -1.96046e-09 1.50376e+08 5.48512e-09 -1.62279e+07)
(-7.85814e+07 -0.178766 -6.76237e-12 1.50376e+08 1.82837e-09 -1.62279e+07)
(-7.85814e+07 -0.0634968 9.76848e-10 1.50376e+08 1.19252e-18 -1.62279e+07)
(-7.85814e+07 0.0108202 9.70086e-10 1.50376e+08 -1.82837e-09 -1.62279e+07)
(-7.85814e+07 0.023435 6.76238e-12 1.50376e+08 -1.82837e-09 -1.62279e+07)
(-7.85814e+07 0.146509 0 1.50376e+08 0 -1.62279e+07)
(-7.85814e+07 -0.216677 -9.70086e-10 1.50376e+08 1.82837e-09 -1.62279e+07)
(-7.85814e+07 0.279212 -4.70036e-18 1.50376e+08 3.65674e-09 -1.62279e+07)
(-7.85814e+07 -0.31201 9.56561e-10 1.50376e+08 -1.82837e-09 -1.62279e+07)
(-7.85814e+07 0.205998 -9.63323e-10 1.50376e+08 -3.65674e-09 -1.62279e+07)
(-7.85814e+07 -0.317471 1.96722e-09 1.50376e+08 3.65674e-09 -1.62279e+07)
(-7.85814e+07 0.0429255 1.91312e-09 1.50376e+08 -3.65674e-09 -1.62279e+07)
(-7.85814e+07 -0.0628786 -1.91312e-09 1.50376e+08 -3.65674e-09 -1.62279e+07)
(-7.85814e+07 0.132905 -1.0039e-09 1.50376e+08 4.88761e-17 -1.62279e+07)
(-7.85814e+07 -0.209277 -2.88997e-09 1.50376e+08 3.65674e-09 -1.62279e+07)
(-7.85814e+07 0.369917 1.92665e-09 1.50376e+08 7.31349e-09 -1.62279e+07)
(-7.85814e+07 -0.214613 -1.35248e-11 1.50376e+08 -3.65674e-09 -1.62279e+07)
(-7.85814e+07 0.121628 -9.56561e-10 1.50376e+08 -1.82837e-09 -1.62279e+07)
(-7.85814e+07 -0.087208 -9.83611e-10 1.50376e+08 1.82837e-09 -1.62279e+07)
(-7.85814e+07 0.0583997 9.70086e-10 1.50376e+08 -1.82837e-09 -1.62279e+07)
(-7.85814e+07 -0.141639 -9.70086e-10 1.50376e+08 -1.82837e-09 -1.62279e+07)
(-7.85814e+07 0.034849 -1.35248e-11 1.50376e+08 -3.65674e-09 -1.62279e+07)
(-7.85814e+07 -0.108765 -1.94017e-09 1.50376e+08 -3.65674e-09 -1.62279e+07)
(-7.85814e+07 0.0174308 -3.89387e-09 1.50376e+08 3.65674e-09 -1.62279e+07)
(-7.85814e+07 0.145214 -1.9537e-09 1.50376e+08 7.31349e-09 -1.62279e+07)
(-7.85814e+07 -0.232195 1.92665e-09 1.50376e+08 -2.05159e-17 -1.62279e+07)
(-7.85814e+07 0.0218157 2.70495e-11 1.50376e+08 -6.9795e-18 -1.62279e+07)
(-7.85814e+07 0.198524 1.94017e-09 1.50376e+08 3.65674e-09 -1.62279e+07)
(-7.85814e+07 -0.0459465 -1.35247e-11 1.50376e+08 -3.65674e-09 -1.62279e+07)
(-7.85814e+07 -0.0452348 -9.49799e-10 1.50376e+08 4.03186e-17 -1.62279e+07)
(-7.85814e+07 -0.0100203 1.94017e-09 1.50376e+08 3.65674e-09 -1.62279e+07)
(-7.85814e+07 0.234587 0 1.50376e+08 0 -1.62279e+07)
(-7.85814e+07 -0.198294 9.63323e-10 1.50376e+08 -3.65674e-09 -1.62279e+07)
(-7.85814e+07 0.089727 -1.40489e-17 1.50376e+08 -7.31349e-09 -1.62279e+07)
(-7.85814e+07 -0.202587 -2.91702e-09 1.50376e+08 -3.65674e-09 -1.62279e+07)
(-7.85814e+07 0.187477 -2.93054e-09 1.50376e+08 6.1255e-17 -1.62279e+07)
(-7.85814e+07 -0.0457238 -2.91026e-09 1.50376e+08 5.48512e-09 -1.62279e+07)
(-7.85814e+07 0.0242438 9.49799e-10 1.50376e+08 3.65674e-09 -1.62279e+07)
(-7.85814e+07 0.161521 -1.94017e-09 1.50376e+08 1.93764e-17 -1.62279e+07)
(-7.85814e+07 -0.276654 -9.76848e-10 1.50376e+08 3.65674e-09 -1.62279e+07)
(-7.85814e+07 0.35949 3.88711e-09 1.50376e+08 -1.82837e-09 -1.62279e+07)
(-7.85814e+07 -0.0819438 2.70495e-11 1.50376e+08 -4.89799e-19 -1.62279e+07)
(-7.85814e+07 -0.100314 -4.05743e-11 1.50376e+08 -3.65674e-09 -1.62279e+07)
(-7.85814e+07 -0.130829 -2.87645e-09 1.50376e+08 -3.50825e-17 -1.62279e+07)
(-7.85814e+07 0.2199 1.91312e-09 1.50376e+08 3.65674e-09 -1.62279e+07)
(-7.85814e+07 -0.0924533 -9.43036e-10 1.50376e+08 1.82837e-09 -1.62279e+07)
(-7.85814e+07 0.143848 9.22749e-10 1.50376e+08 -3.65674e-09 -1.62279e+07)
(-7.85814e+07 -0.293578 -2.86968e-09 1.50376e+08 -1.82837e-09 -1.62279e+07)
(-7.85814e+07 -0.0178302 1.91988e-09 1.50376e+08 5.48512e-09 -1.62279e+07)
(-7.85814e+07 -0.242905 9.90373e-10 1.50376e+08 5.72428e-18 -1.62279e+07)
(-7.85814e+07 0.339266 -1.35248e-11 1.50376e+08 1.07662e-17 -1.62279e+07)
(-7.85814e+07 -0.380968 9.83611e-10 1.50376e+08 -1.82837e-09 -1.62279e+07)
(-7.85814e+07 0.342679 -9.83611e-10 1.50376e+08 -1.82837e-09 -1.62279e+07)
(-7.85814e+07 -0.221416 -6.76237e-12 1.50376e+08 -5.48511e-09 -1.62279e+07)
(-7.85814e+07 0.318657 -3.86682e-09 1.50376e+08 3.65674e-09 -1.62279e+07)
(-7.85814e+07 -0.13951 9.36274e-10 1.50376e+08 3.65674e-09 -1.62279e+07)
(-7.85814e+07 -0.0205457 1.35247e-11 1.50376e+08 -3.65674e-09 -1.62279e+07)
(-7.85814e+07 -0.0478452 1.96722e-09 1.50376e+08 3.65674e-09 -1.62279e+07)
(-7.85814e+07 -0.0471657 -2.02871e-11 1.50376e+08 1.82837e-09 -1.62279e+07)
(-7.85814e+07 -0.0131197 -1.82931e-18 1.50376e+08 -3.65674e-09 -1.62279e+07)
(-7.85814e+07 -0.125289 -9.70086e-10 1.50376e+08 -1.82837e-09 -1.62279e+07)
(-7.85814e+07 0.0435492 -9.76848e-10 1.50376e+08 7.70546e-18 -1.62279e+07)
(-7.85814e+07 0.189336 6.76237e-12 1.50376e+08 1.82837e-09 -1.62279e+07)
(-7.85814e+07 -0.0996547 2.91702e-09 1.50376e+08 -3.57646e-17 -1.62279e+07)
(-7.85814e+07 0.127318 1.35248e-11 1.50376e+08 -4.9717e-18 -1.62279e+07)
(-7.85814e+07 -0.122938 9.49799e-10 1.50376e+08 -3.65674e-09 -1.62279e+07)
(-7.85814e+07 0.0940968 -1.8996e-09 1.50376e+08 3.65674e-09 -1.62279e+07)
(-7.85814e+07 -0.141744 2.86292e-09 1.50376e+08 -4.06057e-17 -1.62279e+07)
(-7.85814e+07 0.11687 -2.88321e-09 1.50376e+08 -5.48512e-09 -1.62279e+07)
(-7.85814e+07 0.00977869 -1.35248e-11 1.50376e+08 3.65674e-09 -1.62279e+07)
(-7.85814e+07 -0.104142 6.76238e-12 1.50376e+08 1.82837e-09 -1.62279e+07)
(-7.85814e+07 0.02594 9.76848e-10 1.50376e+08 3.65674e-09 -1.62279e+07)
(-7.85814e+07 -0.058246 9.43036e-10 1.50376e+08 -5.48512e-09 -1.62279e+07)
(-7.85814e+07 0.0801703 5.4099e-11 1.50376e+08 -4.25695e-17 -1.62279e+07)
(-7.85814e+07 0.125191 9.36274e-10 1.50376e+08 3.65674e-09 -1.62279e+07)
(-7.85814e+07 -0.129929 -9.49799e-10 1.50376e+08 2.02271e-17 -1.62279e+07)
(-7.85814e+07 0.232629 1.92665e-09 1.50376e+08 1.01269e-17 -1.62279e+07)
(-7.85814e+07 -0.113469 2.34e-18 1.50376e+08 -7.31349e-09 -1.62279e+07)
(-7.85814e+07 0.122698 -1.91312e-09 1.50376e+08 3.65674e-09 -1.62279e+07)
(-7.85814e+07 -0.115483 -2.70495e-11 1.50376e+08 7.31349e-09 -1.62279e+07)
(-7.85814e+07 -0.0316306 3.89387e-09 1.50376e+08 -3.65674e-09 -1.62279e+07)
(-7.85814e+07 -0.0275524 -9.56561e-10 1.50376e+08 -1.82837e-09 -1.62279e+07)
(-7.85814e+07 -0.167248 5.76168e-18 1.50376e+08 3.65674e-09 -1.62279e+07)
(-7.85814e+07 0.276783 9.56561e-10 1.50376e+08 -1.82837e-09 -1.62279e+07)
(-7.85814e+07 -0.0940641 -9.76848e-10 1.50376e+08 -7.31349e-09 -1.62279e+07)
(-7.85814e+07 0.0601099 3.38119e-11 1.50376e+08 1.82837e-09 -1.62279e+07)
(-7.85814e+07 -0.150685 -9.97135e-10 1.50376e+08 5.48511e-09 -1.62279e+07)
(-7.85814e+07 0.129948 0 1.50376e+08 0 -1.62279e+07)
(-7.85814e+07 -0.0738562 -6.76238e-12 1.50376e+08 -1.82837e-09 -1.62279e+07)
(-7.85814e+07 -0.0264927 -6.76239e-12 1.50376e+08 -5.48511e-09 -1.62279e+07)
(-7.85814e+07 -0.101809 -1.91988e-09 1.50376e+08 1.82837e-09 -1.62279e+07)
(-7.85814e+07 0.234436 9.49799e-10 1.50376e+08 3.65674e-09 -1.62279e+07)
(-7.85814e+07 -0.0286992 -6.76237e-12 1.50376e+08 -5.48512e-09 -1.62279e+07)
(-7.85814e+07 -0.0581892 -1.92665e-09 1.50376e+08 -8.8326e-18 -1.62279e+07)
(-7.85814e+07 0.0361305 -1.35247e-11 1.50376e+08 3.65674e-09 -1.62279e+07)
(-7.72979e+07 -0.0495009 -9.75523e-10 1.47856e+08 1.09013e-18 -1.57847e+07)
(-7.72979e+07 0.0745995 -1.94619e-09 1.47856e+08 -3.55552e-09 -1.57847e+07)
(-7.72979e+07 -0.0763481 -7.19972e-13 1.47856e+08 1.17404e-17 -1.57847e+07)
(-7.72979e+07 0.101253 -6.56723e-12 1.47856e+08 5.33327e-09 -1.57847e+07)
(-7.72979e+07 -0.16386 -1.96832e-09 1.47856e+08 -3.55552e-09 -1.57847e+07)
(-7.72979e+07 0.115603 9.87938e-10 1.47856e+08 -6.34838e-17 -1.57847e+07)
(-7.72979e+07 -0.057594 -3.04071e-11 1.47856e+08 2.47879e-17 -1.57847e+07)
(-7.72979e+07 0.115458 2.14108e-11 1.47856e+08 1.95009e-17 -1.57847e+07)
(-7.72979e+07 0.0130056 -1.00179e-09 1.47856e+08 3.55552e-09 -1.57847e+07)
(-7.72979e+07 0.0405248 9.64098e-10 1.47856e+08 -1.77776e-09 -1.57847e+07)
(-7.72979e+07 -0.0685162 -1.79926e-11 1.47856e+08 -7.40383e-18 -1.57847e+07)
(-7.72979e+07 0.10001 2.93071e-09 1.47856e+08 3.55552e-09 -1.57847e+07)
(-7.72979e+07 -0.228765 -1.9282e-09 1.47856e+08 3.55552e-09 -1.57847e+07)
(-7.72979e+07 0.17814 -9.79661e-10 1.47856e+08 -3.55552e-09 -1.57847e+07)
(-7.72979e+07 -0.183796 -2.88231e-09 1.47856e+08 3.06629e-17 -1.57847e+07)
(-7.72979e+07 0.0636295 -1.70911e-12 1.47856e+08 1.77776e-09 -1.57847e+07)
(-7.72979e+07 -0.102492 -5.04083e-18 1.47856e+08 -3.55552e-09 -1.57847e+07)
(-7.72979e+07 -0.0206755 9.73094e-10 1.47856e+08 -1.77776e-09 -1.57847e+07)
(-7.72979e+07 -0.00173112 -9.8452e-10 1.47856e+08 4.19565e-18 -1.57847e+07)
(-7.72979e+07 -0.0226602 -1.95105e-09 1.47856e+08 1.26328e-17 -1.57847e+07)
(-7.72979e+07 0.100657 6.56723e-12 1.47856e+08 1.77776e-09 -1.57847e+07)
(-7.72979e+07 -0.138964 -1.94862e-09 1.47856e+08 1.77776e-09 -1.57847e+07)
(-7.72979e+07 0.176697 9.75523e-10 1.47856e+08 -1.24921e-17 -1.57847e+07)
(-7.72979e+07 -0.212891 9.66527e-10 1.47856e+08 3.58654e-18 -1.57847e+07)
(-7.72979e+07 0.1459 -9.86229e-10 1.47856e+08 -5.33327e-09 -1.57847e+07)
(-7.72979e+07 -0.190811 -9.6068e-10 1.47856e+08 -1.77776e-09 -1.57847e+07)
(-7.72979e+07 0.0568095 9.44396e-10 1.47856e+08 3.55552e-09 -1.57847e+07)
(-7.72979e+07 -0.0831285 -3.87753e-09 1.47856e+08 1.77776e-09 -1.57847e+07)
(-7.72979e+07 0.101632 -9.73094e-10 1.47856e+08 1.77776e-09 -1.57847e+07)
(-7.72979e+07 -0.138486 2.04217e-11 1.47856e+08 -1.77776e-09 -1.57847e+07)
(-7.72979e+07 0.208711 1.95276e-09 1.47856e+08 1.77776e-09 -1.57847e+07)
(-7.72979e+07 -0.139049 1.93134e-09 1.47856e+08 1.77776e-09 -1.57847e+07)
(-7.72979e+07 0.108344 2.21307e-11 1.47856e+08 4.67512e-18 -1.57847e+07)
(-7.72979e+07 -0.0706729 -1.07054e-11 1.47856e+08 -1.77776e-09 -1.57847e+07)
(-7.72979e+07 0.0437863 1.07054e-11 1.47856e+08 -1.77776e-09 -1.57847e+07)
(-7.72979e+07 -0.0859313 -4.13816e-12 1.47856e+08 2.25827e-19 -1.57847e+07)
(-7.72979e+07 0.0324454 6.56723e-12 1.47856e+08 -1.77776e-09 -1.57847e+07)
(-7.72979e+07 -0.0590758 -1.91992e-09 1.47856e+08 3.55552e-09 -1.57847e+07)
(-7.72979e+07 -0.0130256 -1.9282e-09 1.47856e+08 3.55552e-09 -1.57847e+07)
(-7.72979e+07 0.0755401 4.85815e-12 1.47856e+08 -3.55552e-09 -1.57847e+07)
(-7.72979e+07 -0.0869002 3.89724e-09 1.47856e+08 -3.55552e-09 -1.57847e+07)
(-7.72979e+07 0.0324175 0 1.47856e+08 0 -1.57847e+07)
(-7.72979e+07 0.0744004 1.94619e-09 1.47856e+08 3.55552e-09 -1.57847e+07)
(-7.72979e+07 -0.0148725 -1.97017e-11 1.47856e+08 1.77776e-09 -1.57847e+07)
(-7.72979e+07 0.029303 8.99628e-12 1.47856e+08 -3.55552e-09 -1.57847e+07)
(-7.72979e+07 -0.0206423 -9.73814e-10 1.47856e+08 1.77776e-09 -1.57847e+07)
(-7.72979e+07 0.125074 1.93134e-09 1.47856e+08 1.77776e-09 -1.57847e+07)
(-7.72979e+07 -0.108076 -8.9963e-12 1.47856e+08 -3.55552e-09 -1.57847e+07)
(-7.72979e+07 0.10807 -1.93791e-09 1.47856e+08 2.69006e-17 -1.57847e+07)
(-7.72979e+07 -0.116346 2.04217e-11 1.47856e+08 1.77776e-09 -1.57847e+07)
(-7.72979e+07 0.115907 -2.89958e-09 1.47856e+08 5.26392e-17 -1.57847e+07)
(-7.72979e+07 -0.0216207 -2.90615e-09 1.47856e+08 -1.77776e-09 -1.57847e+07)
(-7.72979e+07 0.0116121 -9.64818e-10 1.47856e+08 1.77776e-09 -1.57847e+07)
(-7.72979e+07 0.130255 -1.94619e-09 1.47856e+08 3.55552e-09 -1.57847e+07)
(-7.72979e+07 -0.141149 -1.72726e-11 1.47856e+08 -7.11103e-09 -1.57847e+07)
(-7.72979e+07 0.195441 1.95446e-09 1.47856e+08 -3.55552e-09 -1.57847e+07)
(-7.72979e+07 -0.0723275 -3.90209e-09 1.47856e+08 7.11103e-09 -1.57847e+07)
(-7.72979e+07 0.0195134 9.55822e-10 1.47856e+08 1.77776e-09 -1.57847e+07)
(-7.72979e+07 -0.0692579 -3.8751e-09 1.47856e+08 -3.55552e-09 -1.57847e+07)
(-7.72979e+07 0.109527 1.94619e-09 1.47856e+08 -3.07783e-17 -1.57847e+07)
(-7.72979e+07 -0.0953519 -1.94205e-09 1.47856e+08 3.55552e-09 -1.57847e+07)
(-7.72979e+07 0.0936506 2.90444e-09 1.47856e+08 -7.64153e-17 -1.57847e+07)
(-7.72979e+07 -0.165713 -2.89958e-09 1.47856e+08 -3.55552e-09 -1.57847e+07)
(-7.72979e+07 0.0505688 9.64098e-10 1.47856e+08 -1.77776e-09 -1.57847e+07)
(-7.72979e+07 -0.184741 9.79661e-10 1.47856e+08 3.55552e-09 -1.57847e+07)
(-7.72979e+07 0.204725 3.87582e-09 1.47856e+08 -1.1339e-16 -1.57847e+07)
(-7.72979e+07 -0.238508 -9.58251e-10 1.47856e+08 -2.9395e-17 -1.57847e+07)
(-7.72979e+07 0.242777 -1.72726e-11 1.47856e+08 -5.56802e-19 -1.57847e+07)
(-7.72979e+07 -0.167367 -1.92478e-09 1.47856e+08 4.83753e-17 -1.57847e+07)
(-7.72979e+07 0.192475 -2.91029e-09 1.47856e+08 1.77776e-09 -1.57847e+07)
(-7.72979e+07 -0.0866513 -8.99629e-12 1.47856e+08 -3.55552e-09 -1.57847e+07)
(-7.72979e+07 0.0305986 -9.82091e-10 1.47856e+08 -5.33327e-09 -1.57847e+07)
(-7.72979e+07 -0.0260203 -1.92964e-09 1.47856e+08 3.55552e-09 -1.57847e+07)
(-7.72979e+07 -0.0291498 1.91821e-09 1.47856e+08 5.33327e-09 -1.57847e+07)
(-7.72979e+07 0.00525931 9.82091e-10 1.47856e+08 -1.77776e-09 -1.57847e+07)
(-7.72979e+07 -0.0362087 8.9963e-12 1.47856e+08 4.39826e-18 -1.57847e+07)
(-7.72979e+07 0.0151273 2.42908e-12 1.47856e+08 -1.77776e-09 -1.57847e+07)
(-7.72979e+07 0.0889936 -6.56722e-12 1.47856e+08 -5.33327e-09 -1.57847e+07)
(-7.72979e+07 -0.0650205 9.74803e-10 1.47856e+08 6.19855e-18 -1.57847e+07)
(-7.72979e+07 0.100206 1.93791e-09 1.47856e+08 3.55552e-09 -1.57847e+07)
(-7.72979e+07 -0.0807871 9.66527e-10 1.47856e+08 -7.44457e-18 -1.57847e+07)
(-7.72979e+07 0.0756251 -2.90858e-09 1.47856e+08 2.77184e-17 -1.57847e+07)
(-7.72979e+07 -0.0813644 9.55102e-10 1.47856e+08 1.77776e-09 -1.57847e+07)
(-7.72979e+07 0.0668015 1.38544e-11 1.47856e+08 -4.97608e-18 -1.57847e+07)
(-7.72979e+07 -0.00546823 6.56723e-12 1.47856e+08 -1.77776e-09 -1.57847e+07)
(-7.72979e+07 -0.0407044 -9.75523e-10 1.47856e+08 2.96262e-18 -1.57847e+07)
(-7.72979e+07 0.0391201 -2.42907e-12 1.47856e+08 1.77776e-09 -1.57847e+07)
(-7.72979e+07 -0.0256789 9.40258e-10 1.47856e+08 -3.55552e-09 -1.57847e+07)
(-7.72979e+07 0.0303537 3.94033e-11 1.47856e+08 -2.35612e-17 -1.57847e+07)
(-7.72979e+07 0.0808134 9.46825e-10 1.47856e+08 5.33327e-09 -1.57847e+07)
(-7.72979e+07 -0.0688105 -9.73094e-10 1.47856e+08 -1.77776e-09 -1.57847e+07)
(-7.72979e+07 0.141661 3.89067e-09 1.47856e+08 -1.77776e-09 -1.57847e+07)
(-7.72979e+07 -0.0867409 -9.75523e-10 1.47856e+08 3.93902e-18 -1.57847e+07)
(-7.72979e+07 0.0845232 -1.91992e-09 1.47856e+08 3.55552e-09 -1.57847e+07)
(-7.72979e+07 -0.0668076 9.3612e-10 1.47856e+08 -3.55552e-09 -1.57847e+07)
(-7.72979e+07 -0.00988522 1.96103e-09 1.47856e+08 -1.77776e-09 -1.57847e+07)
(-7.72979e+07 0.0120276 -1.07054e-11 1.47856e+08 5.33327e-09 -1.57847e+07)
(-7.72979e+07 -0.0982157 0 1.47856e+08 0 -1.57847e+07)
(-7.72979e+07 0.134983 3.8931e-09 1.47856e+08 -2.34025e-17 -1.57847e+07)
(-7.72979e+07 -0.0841944 -1.07054e-11 1.47856e+08 -5.33327e-09 -1.57847e+07)
(-7.72979e+07 0.0709815 -1.90508e-09 1.47856e+08 1.77776e-09 -1.57847e+07)
(-7.72979e+07 -0.0890515 9.51683e-10 1.47856e+08 5.33327e-09 -1.57847e+07)
(-7.72979e+07 0.0675416 -9.68956e-10 1.47856e+08 -1.77776e-09 -1.57847e+07)
(-7.72979e+07 -0.0567519 -9.82091e-10 1.47856e+08 -1.77776e-09 -1.57847e+07)
(-7.72979e+07 0.0278443 -9.68956e-10 1.47856e+08 -1.77776e-09 -1.57847e+07)
(-7.72979e+07 -0.0623563 -1.93305e-09 1.47856e+08 -6.71209e-18 -1.57847e+07)
(-7.72979e+07 0.104912 9.66527e-10 1.47856e+08 -1.29902e-17 -1.57847e+07)
(-7.72979e+07 -0.0264595 0 1.47856e+08 0 -1.57847e+07)
(-7.72979e+07 -0.0066878 -1.93305e-09 1.47856e+08 -5.431e-18 -1.57847e+07)
(-7.72979e+07 0.0262581 0 1.47856e+08 0 -1.57847e+07)
(-7.53713e+07 -0.0291635 2.45616e-12 1.45132e+08 -1.72491e-09 -1.52504e+07)
(-7.53713e+07 0.0168509 1.26307e-11 1.45132e+08 -8.46445e-18 -1.52504e+07)
(-7.53713e+07 -0.0521493 -3.84352e-09 1.45132e+08 -9.29818e-18 -1.52504e+07)
(-7.53713e+07 0.0442778 -1.90966e-09 1.45132e+08 1.72491e-09 -1.52504e+07)
(-7.53713e+07 -0.00418335 2.87642e-09 1.45132e+08 -3.87396e-18 -1.52504e+07)
(-7.53713e+07 0.060463 -1.89843e-09 1.45132e+08 -3.44982e-09 -1.52504e+07)
(-7.53713e+07 -0.0374641 -9.73074e-10 1.45132e+08 5.1259e-18 -1.52504e+07)
(-7.53713e+07 0.0127622 -1.89843e-09 1.45132e+08 3.44982e-09 -1.52504e+07)
(-7.53713e+07 -0.0236191 9.54128e-10 1.45132e+08 1.72491e-09 -1.52504e+07)
(-7.53713e+07 0.0374892 1.95001e-09 1.45132e+08 9.18567e-19 -1.52504e+07)
(-7.53713e+07 -0.033923 -1.40337e-11 1.45132e+08 -5.17474e-09 -1.52504e+07)
(-7.53713e+07 0.0487335 2.0349e-11 1.45132e+08 -3.44982e-09 -1.52504e+07)
(-7.53713e+07 -0.0562432 1.91106e-09 1.45132e+08 6.89965e-09 -1.52504e+07)
(-7.53713e+07 0.0162784 -1.8946e-11 1.45132e+08 1.72491e-09 -1.52504e+07)
(-7.53713e+07 -0.0935913 8.77149e-12 1.45132e+08 -3.44982e-09 -1.52504e+07)
(-7.53713e+07 0.0237817 1.92369e-09 1.45132e+08 -1.28474e-17 -1.52504e+07)
(-7.53713e+07 -0.0313001 9.51671e-10 1.45132e+08 -7.24388e-18 -1.52504e+07)
(-7.53713e+07 0.0058888 1.8946e-11 1.45132e+08 1.72491e-09 -1.52504e+07)
(-7.53713e+07 -0.0151405 4.91231e-12 1.45132e+08 3.44982e-09 -1.52504e+07)
(-7.53713e+07 -0.04882 3.86212e-09 1.45132e+08 -3.44982e-09 -1.52504e+07)
(-7.53713e+07 0.0222142 2.52613e-11 1.45132e+08 1.69978e-17 -1.52504e+07)
(-7.53713e+07 -0.0520795 9.47812e-10 1.45132e+08 -2.48492e-17 -1.52504e+07)
(-7.53713e+07 0.0435974 2.90308e-09 1.45132e+08 -1.72491e-09 -1.52504e+07)
(-7.53713e+07 -0.0824766 9.57987e-10 1.45132e+08 1.72491e-09 -1.52504e+07)
(-7.53713e+07 0.0489638 -9.64302e-10 1.45132e+08 6.51585e-18 -1.52504e+07)
(-7.53713e+07 -0.0508418 -1.90229e-09 1.45132e+08 -2.61819e-17 -1.52504e+07)
(-7.53713e+07 0.0396796 1.50868e-11 1.45132e+08 1.72491e-09 -1.52504e+07)
(-7.53713e+07 -0.0700705 4.91228e-12 1.45132e+08 8.72342e-18 -1.52504e+07)
(-7.53713e+07 0.0418217 9.51671e-10 1.45132e+08 -6.89965e-09 -1.52504e+07)
(-7.53713e+07 -0.0515937 9.69564e-10 1.45132e+08 -1.72491e-09 -1.52504e+07)
(-7.53713e+07 0.03346 -1.26307e-11 1.45132e+08 3.44982e-09 -1.52504e+07)
(-7.53713e+07 -0.0504195 -1.7543e-11 1.45132e+08 -1.25921e-17 -1.52504e+07)
(-7.53713e+07 0.0538226 9.61846e-10 1.45132e+08 1.72491e-09 -1.52504e+07)
(-7.53713e+07 -0.0441005 -1.50868e-11 1.45132e+08 1.72491e-09 -1.52504e+07)
(-7.53713e+07 0.0194323 -1.92615e-09 1.45132e+08 -1.72491e-09 -1.52504e+07)
(-7.53713e+07 -0.0246457 9.61846e-10 1.45132e+08 -1.72491e-09 -1.52504e+07)
(-7.53713e+07 0.0148677 0 1.45132e+08 0 -1.52504e+07)
(-7.53713e+07 -0.00811032 1.9286e-09 1.45132e+08 -1.31301e-17 -1.52504e+07)
(-7.53713e+07 -0.027268 1.91106e-09 1.45132e+08 -2.50828e-17 -1.52504e+07)
(-7.53713e+07 -0.00395694 -3.01736e-11 1.45132e+08 -3.44982e-09 -1.52504e+07)
(-7.53713e+07 0.0255768 1.93632e-09 1.45132e+08 -3.51336e-17 -1.52504e+07)
(-7.53713e+07 0.0187544 -1.26307e-11 1.45132e+08 3.44982e-09 -1.52504e+07)
(-7.53713e+07 -0.0243857 1.26307e-11 1.45132e+08 3.44982e-09 -1.52504e+07)
(-7.53713e+07 0.00203567 1.90334e-09 1.45132e+08 -7.03072e-17 -1.52504e+07)
(-7.53713e+07 0.0574316 -9.41497e-10 1.45132e+08 1.72491e-09 -1.52504e+07)
(-7.53713e+07 -0.0219059 -1.15776e-11 1.45132e+08 2.30411e-17 -1.52504e+07)
(-7.53713e+07 0.0146967 1.94264e-09 1.45132e+08 -1.72491e-09 -1.52504e+07)
(-7.53713e+07 -0.0234318 -9.68161e-10 1.45132e+08 3.44982e-09 -1.52504e+07)
(-7.53713e+07 0.0731738 -7.71838e-12 1.45132e+08 -6.89965e-09 -1.52504e+07)
(-7.53713e+07 -0.0193681 -9.46409e-10 1.45132e+08 -1.72491e-09 -1.52504e+07)
(-7.53713e+07 0.0264441 9.45356e-10 1.45132e+08 5.17474e-09 -1.52504e+07)
(-7.53713e+07 -0.00224922 9.70617e-10 1.45132e+08 1.72491e-09 -1.52504e+07)
(-7.53713e+07 -0.00213594 1.12276e-11 1.45132e+08 1.72491e-09 -1.52504e+07)
(-7.53713e+07 0.0553041 -6.31534e-12 1.45132e+08 -1.72491e-09 -1.52504e+07)
(-7.53713e+07 -0.0124512 1.91983e-09 1.45132e+08 -3.44982e-09 -1.52504e+07)
(-7.53713e+07 0.0220124 -1.87948e-09 1.45132e+08 5.17474e-09 -1.52504e+07)
(-7.53713e+07 -0.0441825 -9.12142e-12 1.45132e+08 1.72491e-09 -1.52504e+07)
(-7.53713e+07 0.079331 1.94509e-09 1.45132e+08 -3.44982e-09 -1.52504e+07)
(-7.53713e+07 -0.0181321 -9.74477e-10 1.45132e+08 -1.72491e-09 -1.52504e+07)
(-7.53713e+07 -0.000480659 2.52613e-11 1.45132e+08 -5.90794e-17 -1.52504e+07)
(-7.53713e+07 -0.076099 9.47812e-10 1.45132e+08 -6.80454e-17 -1.52504e+07)
(-7.53713e+07 0.0223953 1.40304e-12 1.45132e+08 -1.72491e-09 -1.52504e+07)
(-7.53713e+07 -0.0414846 9.57987e-10 1.45132e+08 1.72491e-09 -1.52504e+07)
(-7.53713e+07 0.0646818 2.45616e-12 1.45132e+08 -1.72491e-09 -1.52504e+07)
(-7.53713e+07 -0.088695 -6.31534e-12 1.45132e+08 -5.17474e-09 -1.52504e+07)
(-7.53713e+07 0.0411533 1.93141e-09 1.45132e+08 3.44982e-09 -1.52504e+07)
(-7.53713e+07 -0.0739101 -1.40337e-11 1.45132e+08 5.17474e-09 -1.52504e+07)
(-7.53713e+07 0.0849978 1.93246e-09 1.45132e+08 -1.56332e-17 -1.52504e+07)
(-7.53713e+07 -0.0790746 -1.92369e-09 1.45132e+08 2.1499e-17 -1.52504e+07)
(-7.53713e+07 0.0392135 1.93246e-09 1.45132e+08 -4.82612e-17 -1.52504e+07)
(-7.53713e+07 -0.0361493 9.60443e-10 1.45132e+08 -2.74196e-17 -1.52504e+07)
(-7.53713e+07 0.039234 -1.9072e-09 1.45132e+08 1.89455e-17 -1.52504e+07)
(-7.53713e+07 -0.00987768 -1.91246e-09 1.45132e+08 -1.72491e-09 -1.52504e+07)
(-7.53713e+07 -0.0108338 1.92369e-09 1.45132e+08 -3.44982e-09 -1.52504e+07)
(-7.53713e+07 0.00969034 9.55531e-10 1.45132e+08 -2.53657e-18 -1.52504e+07)
(-7.53713e+07 0.0204497 -9.73074e-10 1.45132e+08 1.15261e-17 -1.52504e+07)
(-7.53713e+07 -0.0163144 9.55531e-10 1.45132e+08 -1.05561e-17 -1.52504e+07)
(-7.53713e+07 -9.48136e-05 -1.9286e-09 1.45132e+08 1.97568e-17 -1.52504e+07)
(-7.53713e+07 -0.0192399 -1.92369e-09 1.45132e+08 -3.44982e-09 -1.52504e+07)
(-7.53713e+07 0.0432685 7.71837e-12 1.45132e+08 4.97925e-17 -1.52504e+07)
(-7.53713e+07 -0.0225144 -6.31534e-12 1.45132e+08 5.17474e-09 -1.52504e+07)
(-7.53713e+07 0.0396669 8.77149e-12 1.45132e+08 3.44982e-09 -1.52504e+07)
(-7.53713e+07 -0.0146326 -1.40337e-11 1.45132e+08 -5.17474e-09 -1.52504e+07)
(-7.53713e+07 0.00469883 9.7588e-10 1.45132e+08 -3.44982e-09 -1.52504e+07)
(-7.53713e+07 -0.0111531 -6.31533e-12 1.45132e+08 5.17474e-09 -1.52504e+07)
(-7.53713e+07 0.015268 -1.92615e-09 1.45132e+08 1.72491e-09 -1.52504e+07)
(-7.53713e+07 0.0275842 -1.91983e-09 1.45132e+08 5.32683e-18 -1.52504e+07)
(-7.53713e+07 0.00839242 9.45356e-10 1.45132e+08 -5.17474e-09 -1.52504e+07)
(-7.53713e+07 -0.00898662 -1.89071e-09 1.45132e+08 2.60306e-17 -1.52504e+07)
(-7.53713e+07 0.0250284 9.45356e-10 1.45132e+08 5.17474e-09 -1.52504e+07)
(-7.53713e+07 -0.00643293 9.45356e-10 1.45132e+08 -5.17474e-09 -1.52504e+07)
(-7.53713e+07 0.0400791 2.03491e-11 1.45132e+08 -3.16356e-17 -1.52504e+07)
(-7.53713e+07 -0.0355658 -1.94509e-09 1.45132e+08 3.44982e-09 -1.52504e+07)
(-7.53713e+07 0.0294159 1.26307e-11 1.45132e+08 -1.81295e-17 -1.52504e+07)
(-7.53713e+07 -0.0109394 1.9072e-09 1.45132e+08 1.58327e-18 -1.52504e+07)
(-7.53713e+07 0.00363909 -1.90475e-09 1.45132e+08 -1.72491e-09 -1.52504e+07)
(-7.53713e+07 0.0264375 -9.66758e-10 1.45132e+08 1.72491e-09 -1.52504e+07)
(-7.53713e+07 -0.0198122 9.39041e-10 1.45132e+08 -3.44982e-09 -1.52504e+07)
(-7.53713e+07 0.00296013 9.69564e-10 1.45132e+08 -1.72491e-09 -1.52504e+07)
(-7.53713e+07 -0.0510822 9.429e-10 1.45132e+08 3.44982e-09 -1.52504e+07)
(-7.53713e+07 0.0500182 -1.91106e-09 1.45132e+08 8.41549e-18 -1.52504e+07)
(-7.53713e+07 -0.023827 1.92369e-09 1.45132e+08 3.44982e-09 -1.52504e+07)
(-7.53713e+07 0.011194 9.60443e-10 1.45132e+08 3.44982e-09 -1.52504e+07)
(-7.53713e+07 -0.0273659 9.66758e-10 1.45132e+08 -1.72491e-09 -1.52504e+07)
(-7.53713e+07 0.0495605 -1.91983e-09 1.45132e+08 -3.44982e-09 -1.52504e+07)
(-7.53713e+07 -0.0196753 6.31533e-12 1.45132e+08 -1.72491e-09 -1.52504e+07)
(-7.53713e+07 -0.00783889 -1.9286e-09 1.45132e+08 4.3886e-18 -1.52504e+07)
(-7.53713e+07 -0.0146267 0 1.45132e+08 0 -1.52504e+07)
(-7.53713e+07 0.0256994 0 1.45132e+08 0 -1.52504e+07)
(-7.53713e+07 0.00974956 0 1.45132e+08 0 -1.52504e+07)
(-7.38725e+07 -0.0218405 -9.67146e-10 1.42647e+08 -4.13433e-18 -1.47999e+07)
(-7.38725e+07 0.000773281 1.22188e-11 1.42647e+08 3.35307e-09 -1.47999e+07)
(-7.38725e+07 -0.0380196 9.54927e-10 1.42647e+08 3.35307e-09 -1.47999e+07)
(-7.38725e+07 0.0309324 -7.23401e-12 1.42647e+08 -6.70614e-09 -1.47999e+07)
(-7.38725e+07 0.0297613 1.91934e-09 1.42647e+08 -3.35307e-09 -1.47999e+07)
(-7.38725e+07 0.0430808 -1.91709e-09 1.42647e+08 6.70614e-09 -1.47999e+07)
(-7.38725e+07 -0.0332334 -7.23401e-12 1.42647e+08 -2.91675e-18 -1.47999e+07)
(-7.38725e+07 -0.019158 1.92931e-09 1.42647e+08 -3.35307e-09 -1.47999e+07)
(-7.38725e+07 -0.0378376 -2.94223e-11 1.42647e+08 -3.35307e-09 -1.47999e+07)
(-7.38725e+07 0.0285119 9.57176e-10 1.42647e+08 1.71358e-17 -1.47999e+07)
(-7.38725e+07 -0.0214297 3.80475e-09 1.42647e+08 3.35307e-09 -1.47999e+07)
(-7.38725e+07 0.0371279 -1.89988e-09 1.42647e+08 -3.12703e-18 -1.47999e+07)
(-7.38725e+07 -0.0113696 1.22188e-11 1.42647e+08 3.35307e-09 -1.47999e+07)
(-7.38725e+07 -0.0142599 -2.44375e-11 1.42647e+08 2.85715e-17 -1.47999e+07)
(-7.38725e+07 -0.0604476 -9.54927e-10 1.42647e+08 -3.35307e-09 -1.47999e+07)
(-7.38725e+07 0.0148274 0 1.42647e+08 0 -1.47999e+07)
(-7.38725e+07 -0.00644643 -9.67146e-10 1.42647e+08 1.68148e-18 -1.47999e+07)
(-7.38725e+07 0.0113234 0 1.42647e+08 0 -1.47999e+07)
(-7.38725e+07 -0.0199578 1.87545e-09 1.42647e+08 -6.70614e-09 -1.47999e+07)
(-7.38725e+07 -0.0526751 1.91435e-09 1.42647e+08 -3.64145e-17 -1.47999e+07)
(-7.38725e+07 -0.00124917 -1.94153e-09 1.42647e+08 6.70614e-09 -1.47999e+07)
(-7.38725e+07 -0.0322346 -2.94223e-11 1.42647e+08 -3.35307e-09 -1.47999e+07)
(-7.38725e+07 0.00718357 -1.90985e-09 1.42647e+08 3.54066e-17 -1.47999e+07)
(-7.38725e+07 -0.0418721 -9.67146e-10 1.42647e+08 6.70614e-09 -1.47999e+07)
(-7.38725e+07 0.0242468 9.42708e-10 1.42647e+08 7.83647e-18 -1.47999e+07)
(-7.38725e+07 -0.0125187 9.62161e-10 1.42647e+08 -3.35307e-09 -1.47999e+07)
(-7.38725e+07 0.0350634 9.49942e-10 1.42647e+08 -4.77101e-18 -1.47999e+07)
(-7.38725e+07 -0.0537048 1.89988e-09 1.42647e+08 -6.56537e-18 -1.47999e+07)
(-7.38725e+07 0.0230656 -9.67146e-10 1.42647e+08 1.55609e-17 -1.47999e+07)
(-7.38725e+07 -0.0300097 1.72035e-11 1.42647e+08 3.40277e-18 -1.47999e+07)
(-7.38725e+07 -0.0156744 1.22188e-11 1.42647e+08 3.35307e-09 -1.47999e+07)
(-7.38725e+07 -0.0275897 -7.23402e-12 1.42647e+08 7.92059e-18 -1.47999e+07)
(-7.38725e+07 0.0293939 2.44375e-11 1.42647e+08 -3.24501e-17 -1.47999e+07)
(-7.38725e+07 -0.0293855 -9.62161e-10 1.42647e+08 3.35307e-09 -1.47999e+07)
(-7.38725e+07 0.00948623 9.54927e-10 1.42647e+08 -3.35307e-09 -1.47999e+07)
(-7.38725e+07 -0.00518207 1.22188e-11 1.42647e+08 -3.35307e-09 -1.47999e+07)
(-7.38725e+07 0.0125972 -1.22188e-11 1.42647e+08 -3.35307e-09 -1.47999e+07)
(-7.38725e+07 0.00317149 7.234e-12 1.42647e+08 -1.25998e-17 -1.47999e+07)
(-7.38725e+07 -0.0247109 -1.91709e-09 1.42647e+08 6.70614e-09 -1.47999e+07)
(-7.38725e+07 -0.0164534 -1.94528e-11 1.42647e+08 -3.35307e-09 -1.47999e+07)
(-7.38725e+07 0.0423655 -1.88043e-09 1.42647e+08 -3.35307e-09 -1.47999e+07)
(-7.38725e+07 0.0123148 -1.22188e-11 1.42647e+08 3.35307e-09 -1.47999e+07)
(-7.38725e+07 -0.0449084 0 1.42647e+08 0 -1.47999e+07)
(-7.38725e+07 0.0082583 1.9121e-09 1.42647e+08 3.35307e-09 -1.47999e+07)
(-7.38725e+07 0.0547819 -7.234e-12 1.42647e+08 7.68188e-18 -1.47999e+07)
(-7.38725e+07 -0.0189344 4.77913e-09 1.42647e+08 -3.35307e-09 -1.47999e+07)
(-7.38725e+07 -0.0109411 1.22188e-11 1.42647e+08 3.35307e-09 -1.47999e+07)
(-7.38725e+07 0.00564708 1.89265e-09 1.42647e+08 2.52184e-18 -1.47999e+07)
(-7.38725e+07 0.0582316 1.92432e-09 1.42647e+08 -1.45105e-17 -1.47999e+07)
(-7.38725e+07 0.00538047 -1.90712e-09 1.42647e+08 1.67595e-17 -1.47999e+07)
(-7.38725e+07 0.00631196 9.62161e-10 1.42647e+08 -3.35307e-09 -1.47999e+07)
(-7.38725e+07 -0.000492931 9.49942e-10 1.42647e+08 -1.90234e-17 -1.47999e+07)
(-7.38725e+07 -0.00662809 -4.98474e-12 1.42647e+08 3.35307e-09 -1.47999e+07)
(-7.38725e+07 0.0288713 1.89265e-09 1.42647e+08 -9.81915e-19 -1.47999e+07)
(-7.38725e+07 0.012721 9.62161e-10 1.42647e+08 -3.35307e-09 -1.47999e+07)
(-7.38725e+07 -0.0184218 0 1.42647e+08 0 -1.47999e+07)
(-7.38725e+07 -0.0292765 3.79977e-09 1.42647e+08 -4.15487e-17 -1.47999e+07)
(-7.38725e+07 0.0808514 9.62161e-10 1.42647e+08 3.35307e-09 -1.47999e+07)
(-7.38725e+07 -0.000108641 1.89265e-09 1.42647e+08 9.2332e-18 -1.47999e+07)
(-7.38725e+07 -0.0250061 1.22188e-11 1.42647e+08 -3.35307e-09 -1.47999e+07)
(-7.38725e+07 -0.0573985 1.9121e-09 1.42647e+08 3.35307e-09 -1.47999e+07)