/*--------------------------------*- C++ -*----------------------------------*\
| =========                 |                                                 |
| \\      /  F ield         | OpenFOAM: The Open Source CFD Toolbox           |
|  \\    /   O peration     | Version:  2312                                  |
|   \\  /    A nd           | Website:  www.openfoam.com                      |
|    \\/     M anipulation  |                                                 |
\*---------------------------------------------------------------------------*/
FoamFile
{
    version     2.0;
    format      ascii;
    arch        "LSB;label=32;scalar=64";
    class       volSymmTensorField;
    location    "80";
    object      sigma;
}
// * * * * * * * * * * * * * * * * * * * * * * * * * * * * * * * * * * * * * //

dimensions      [1 -1 -2 0 0 0 0];

internalField   nonuniform List<symmTensor> 
12870
(
(-7.85697e+07 -1.63469e+06 1.25845e-11 1.50364e+08 -3.65675e-09 -1.62279e+07)
(-7.84764e+07 -4.90275e+06 -1.9586e-09 1.5027e+08 1.78683e-09 -1.62279e+07)
(-7.82897e+07 -8.1668e+06 2.77113e-09 1.50084e+08 3.75805e-09 -1.62279e+07)
(-7.80099e+07 -1.14242e+07 9.80977e-11 1.49804e+08 -1.82575e-09 -1.62279e+07)
(-7.76372e+07 -1.46723e+07 -1.08549e-09 1.49431e+08 1.7623e-09 -1.62279e+07)
(-7.7172e+07 -1.79084e+07 2.90803e-09 1.48966e+08 2.28867e-10 -1.62279e+07)
(-7.66145e+07 -2.11299e+07 -7.96444e-10 1.48409e+08 -1.91042e-09 -1.62279e+07)
(-7.59652e+07 -2.43341e+07 1.75378e-09 1.47759e+08 2.02746e-09 -1.62279e+07)
(-7.52247e+07 -2.75186e+07 -4.42765e-10 1.47019e+08 3.62984e-09 -1.62279e+07)
(-7.43936e+07 -3.06805e+07 1.68177e-09 1.46188e+08 2.07488e-09 -1.62279e+07)
(-7.34725e+07 -3.38175e+07 2.19821e-09 1.45267e+08 -1.51703e-09 -1.62279e+07)
(-7.24622e+07 -3.69269e+07 2.14599e-09 1.44256e+08 -7.05761e-09 -1.62279e+07)
(-7.13635e+07 -4.00061e+07 -3.80538e-09 1.43158e+08 -6.86566e-10 -1.62279e+07)
(-7.01773e+07 -4.30527e+07 -9.98575e-10 1.41971e+08 -1.94926e-10 -1.62279e+07)
(-6.89047e+07 -4.60642e+07 -1.50299e-09 1.40699e+08 -2.18401e-09 -1.62279e+07)
(-6.75465e+07 -4.90382e+07 -3.11682e-09 1.39341e+08 4.92091e-09 -1.62279e+07)
(-6.6104e+07 -5.19721e+07 -4.334e-10 1.37898e+08 1.77627e-09 -1.62279e+07)
(-6.45783e+07 -5.48637e+07 9.46505e-10 1.36372e+08 2.41581e-10 -1.62279e+07)
(-6.29706e+07 -5.77105e+07 1.41385e-09 1.34765e+08 -1.51163e-09 -1.62279e+07)
(-6.12823e+07 -6.05102e+07 5.09075e-10 1.33076e+08 -1.75608e-09 -1.62279e+07)
(-5.95147e+07 -6.32606e+07 0 1.31309e+08 0 -1.62279e+07)
(-5.76694e+07 -6.59594e+07 -1.47729e-09 1.29463e+08 1.4497e-09 -1.62279e+07)
(-5.57477e+07 -6.86044e+07 -1.1548e-09 1.27542e+08 3.46961e-09 -1.62279e+07)
(-5.37512e+07 -7.11934e+07 1.50532e-09 1.25545e+08 -1.41137e-09 -1.62279e+07)
(-5.16817e+07 -7.37244e+07 3.48439e-10 1.23476e+08 -3.76542e-09 -1.62279e+07)
(-4.95407e+07 -7.61952e+07 5.35901e-10 1.21335e+08 4.11759e-09 -1.62279e+07)
(-4.733e+07 -7.86039e+07 3.12876e-09 1.19124e+08 -2.69122e-09 -1.62279e+07)
(-4.50514e+07 -8.09485e+07 -3.68119e-10 1.16846e+08 -4.11051e-09 -1.62279e+07)
(-4.27068e+07 -8.3227e+07 -9.219e-10 1.14501e+08 -3.9738e-10 -1.62279e+07)
(-4.02982e+07 -8.54377e+07 -4.13259e-09 1.12092e+08 2.15531e-09 -1.62279e+07)
(-3.78273e+07 -8.75787e+07 -1.33877e-09 1.09621e+08 7.44357e-09 -1.62279e+07)
(-3.52964e+07 -8.96483e+07 1.57778e-09 1.0709e+08 -3.29887e-09 -1.62279e+07)
(-3.27073e+07 -9.16447e+07 -3.69704e-11 1.04501e+08 -2.06315e-09 -1.62279e+07)
(-3.00623e+07 -9.35664e+07 -1.71487e-09 1.01856e+08 1.17033e-09 -1.62279e+07)
(-2.73635e+07 -9.54118e+07 1.71949e-09 9.91577e+07 -1.15212e-09 -1.62279e+07)
(-2.46132e+07 -9.71794e+07 3.95977e-11 9.64073e+07 -2.06941e-09 -1.62279e+07)
(-2.18134e+07 -9.88677e+07 1.8091e-09 9.36075e+07 -3.17791e-09 -1.62279e+07)
(-1.89666e+07 -1.00475e+08 1.97351e-10 9.07607e+07 -4.13486e-09 -1.62279e+07)
(-1.60751e+07 -1.02001e+08 -5.23071e-09 8.78692e+07 1.08335e-09 -1.62279e+07)
(-1.31411e+07 -1.03444e+08 -5.56099e-09 8.49352e+07 5.13608e-09 -1.62279e+07)
(-1.01672e+07 -1.04802e+08 1.61332e-09 8.19613e+07 1.05317e-09 -1.62279e+07)
(-7.15568e+06 -1.06074e+08 2.2437e-11 7.89498e+07 1.51081e-11 -1.62279e+07)
(-4.10906e+06 -1.07261e+08 -4.91826e-10 7.59032e+07 4.11025e-09 -1.62279e+07)
(-1.0298e+06 -1.08359e+08 2.1172e-09 7.28239e+07 -2.98151e-09 -1.62279e+07)
(2.07957e+06 -1.0937e+08 -7.64398e-10 6.97146e+07 -5.6375e-10 -1.62279e+07)
(5.21652e+06 -1.10291e+08 -6.67404e-10 6.65776e+07 4.08541e-09 -1.62279e+07)
(8.3785e+06 -1.11122e+08 0 6.34156e+07 0 -1.62279e+07)
(1.15629e+07 -1.11862e+08 3.04458e-09 6.02312e+07 -2.24284e-09 -1.62279e+07)
(1.47672e+07 -1.12512e+08 4.66983e-09 5.70269e+07 -5.62848e-09 -1.62279e+07)
(1.79887e+07 -1.13069e+08 1.56746e-10 5.38054e+07 -4.67506e-09 -1.62279e+07)
(2.12248e+07 -1.13534e+08 -2.201e-09 5.05693e+07 -1.93486e-09 -1.62279e+07)
(2.44729e+07 -1.13907e+08 -5.83805e-09 4.73213e+07 2.115e-09 -1.62279e+07)
(2.77303e+07 -1.14187e+08 -1.79662e-09 4.40639e+07 3.32356e-09 -1.62279e+07)
(3.09943e+07 -1.14373e+08 -1.40098e-09 4.07998e+07 -1.34221e-09 -1.62279e+07)
(3.42624e+07 -1.14467e+08 -3.26283e-09 3.75318e+07 1.91832e-09 -1.62279e+07)
(3.75318e+07 -1.14467e+08 4.03096e-09 3.42624e+07 1.48456e-09 -1.62279e+07)
(4.07998e+07 -1.14373e+08 1.87128e-11 3.09943e+07 1.95322e-11 -1.62279e+07)
(4.40639e+07 -1.14187e+08 2.6487e-09 2.77303e+07 -2.52147e-09 -1.62279e+07)
(4.73213e+07 -1.13907e+08 -1.9298e-09 2.44729e+07 -2.13303e-09 -1.62279e+07)
(5.05693e+07 -1.13534e+08 -1.48329e-09 2.12248e+07 3.85119e-09 -1.62279e+07)
(5.38054e+07 -1.13069e+08 -2.00276e-09 1.79887e+07 4.70342e-10 -1.62279e+07)
(5.70269e+07 -1.12512e+08 3.40343e-09 1.47672e+07 -1.62477e-09 -1.62279e+07)
(6.02312e+07 -1.11862e+08 -3.76991e-10 1.15629e+07 -3.3817e-09 -1.62279e+07)
(6.34156e+07 -1.11122e+08 -3.13645e-09 8.3785e+06 4.89235e-09 -1.62279e+07)
(6.65776e+07 -1.10291e+08 5.99154e-10 5.21652e+06 7.88577e-10 -1.62279e+07)
(6.97146e+07 -1.0937e+08 -8.02758e-12 2.07957e+06 -1.08847e-11 -1.62279e+07)
(7.28239e+07 -1.08359e+08 2.05927e-09 -1.0298e+06 -2.64236e-10 -1.62279e+07)
(7.59032e+07 -1.07261e+08 9.40887e-10 -4.10906e+06 -1.85072e-09 -1.62279e+07)
(7.89498e+07 -1.06074e+08 4.54602e-09 -7.15568e+06 -3.06924e-09 -1.62279e+07)
(8.19613e+07 -1.04802e+08 -5.17579e-09 -1.01672e+07 -1.23907e-09 -1.62279e+07)
(8.49352e+07 -1.03444e+08 -2.58973e-09 -1.31411e+07 2.74621e-09 -1.62279e+07)
(8.78692e+07 -1.02001e+08 3.12495e-09 -1.60751e+07 -1.89911e-09 -1.62279e+07)
(9.07607e+07 -1.00475e+08 -2.14104e-09 -1.89666e+07 3.55776e-09 -1.62279e+07)
(9.36075e+07 -9.88677e+07 -1.59569e-09 -2.18134e+07 8.92821e-10 -1.62279e+07)
(9.64073e+07 -9.71794e+07 3.19685e-09 -2.46132e+07 -1.77536e-09 -1.62279e+07)
(9.91577e+07 -9.54118e+07 1.15212e-09 -2.73635e+07 -1.71949e-09 -1.62279e+07)
(1.01856e+08 -9.35664e+07 -4.49683e-10 -3.00623e+07 -8.6719e-10 -1.62279e+07)
(1.04501e+08 -9.16447e+07 -1.63195e-09 -3.27073e+07 8.24458e-10 -1.62279e+07)
(1.0709e+08 -8.96483e+07 1.26833e-09 -3.52964e+07 2.62685e-09 -1.62279e+07)
(1.09621e+08 -8.75787e+07 5.70609e-12 -3.78273e+07 1.22621e-11 -1.62279e+07)
(1.12092e+08 -8.54377e+07 3.72543e-09 -4.02982e+07 -6.28516e-10 -1.62279e+07)
(1.14501e+08 -8.3227e+07 -4.10999e-09 -4.27068e+07 -2.96966e-10 -1.62279e+07)
(1.16846e+08 -8.09485e+07 1.09559e-09 -4.50514e+07 2.64499e-09 -1.62279e+07)
(1.19124e+08 -7.86039e+07 4.03184e-09 -4.733e+07 -4.70571e-09 -1.62279e+07)
(1.21335e+08 -7.61952e+07 -3.42179e-09 -4.95407e+07 1.28969e-09 -1.62279e+07)
(1.23476e+08 -7.37244e+07 -1.71529e-09 -5.16817e+07 6.33055e-10 -1.62279e+07)
(1.25545e+08 -7.11934e+07 -3.13108e-09 -5.37512e+07 2.12658e-09 -1.62279e+07)
(1.27542e+08 -6.86044e+07 5.50223e-09 -5.57477e+07 -8.3742e-10 -1.62279e+07)
(1.29463e+08 -6.59594e+07 1.63498e-11 -5.76694e+07 5.15692e-11 -1.62279e+07)
(1.31309e+08 -6.32606e+07 -3.23099e-09 -5.95147e+07 1.95169e-09 -1.62279e+07)
(1.33076e+08 -6.05102e+07 -2.61076e-10 -6.12823e+07 -9.13213e-10 -1.62279e+07)
(1.34765e+08 -5.77105e+07 5.03081e-10 -6.29706e+07 1.85981e-09 -1.62279e+07)
(1.36372e+08 -5.48637e+07 7.08631e-09 -6.45783e+07 -1.80867e-09 -1.62279e+07)
(1.37898e+08 -5.19721e+07 -4.00232e-09 -6.6104e+07 -1.00661e-09 -1.62279e+07)
(1.39341e+08 -4.90382e+07 -7.14101e-09 -6.75465e+07 1.57919e-09 -1.62279e+07)
(1.40699e+08 -4.60642e+07 4.37915e-09 -6.89047e+07 3.05893e-09 -1.62279e+07)
(1.41971e+08 -4.30527e+07 1.61124e-09 -7.01773e+07 -1.28913e-09 -1.62279e+07)
(1.43158e+08 -4.00061e+07 -3.59864e-09 -7.13635e+07 6.49266e-10 -1.62279e+07)
(1.44256e+08 -3.69269e+07 1.96015e-09 -7.24622e+07 6.44785e-10 -1.62279e+07)
(1.45267e+08 -3.38175e+07 7.08551e-09 -7.34725e+07 -2.05837e-09 -1.62279e+07)
(1.46188e+08 -3.06805e+07 -1.807e-09 -7.43936e+07 2.80777e-10 -1.62279e+07)
(1.47019e+08 -2.75186e+07 -5.56549e-09 -7.52247e+07 -3.25651e-10 -1.62279e+07)
(1.47759e+08 -2.43341e+07 0 -7.59652e+07 0 -1.62279e+07)
(1.48409e+08 -2.11299e+07 1.81987e-09 -7.66145e+07 -1.76199e-10 -1.62279e+07)
(1.48966e+08 -1.79084e+07 5.46768e-09 -7.7172e+07 -4.37099e-10 -1.62279e+07)
(1.49431e+08 -1.46723e+07 -1.94788e-09 -7.76372e+07 -1.79851e-09 -1.62279e+07)
(1.49804e+08 -1.14242e+07 -3.60473e-09 -7.80099e+07 1.1313e-09 -1.62279e+07)
(1.50084e+08 -8.1668e+06 5.48138e-09 -7.82897e+07 -2.02535e-10 -1.62279e+07)
(1.5027e+08 -4.90275e+06 -4.12655e-11 -7.84764e+07 -1.9262e-09 -1.62279e+07)
(1.50364e+08 -1.63469e+06 -3.65675e-09 -7.85697e+07 1.25845e-11 -1.62279e+07)
(-7.72864e+07 -1.60754e+06 -9.75498e-10 1.47845e+08 -6.96516e-12 -1.57847e+07)
(-7.71946e+07 -4.82131e+06 -1.86959e-09 1.47753e+08 -3.59638e-09 -1.57847e+07)
(-7.70111e+07 -8.03116e+06 -7.19513e-13 1.47569e+08 -2.56857e-14 -1.57847e+07)
(-7.67359e+07 -1.12344e+07 -2.73004e-10 1.47294e+08 5.32629e-09 -1.57847e+07)
(-7.63695e+07 -1.44286e+07 -1.73594e-09 1.46928e+08 -3.67457e-09 -1.57847e+07)
(-7.59119e+07 -1.76109e+07 9.84892e-10 1.4647e+08 7.75126e-11 -1.57847e+07)
(-7.53637e+07 -2.07789e+07 -3.02762e-11 1.45922e+08 -2.8183e-12 -1.57847e+07)
(-7.47252e+07 -2.393e+07 2.12881e-11 1.45283e+08 2.28872e-12 -1.57847e+07)
(-7.3997e+07 -2.70615e+07 -1.42493e-09 1.44555e+08 3.40806e-09 -1.57847e+07)
(-7.31796e+07 -3.0171e+07 1.19567e-09 1.43738e+08 -1.63104e-09 -1.57847e+07)
(-7.22738e+07 -3.32558e+07 -1.77907e-11 1.42832e+08 -2.68771e-12 -1.57847e+07)
(-7.12803e+07 -3.63135e+07 2.31001e-09 1.41839e+08 3.9868e-09 -1.57847e+07)
(-7.01999e+07 -3.93416e+07 -2.52885e-09 1.40758e+08 3.15667e-09 -1.57847e+07)
(-6.90334e+07 -4.23377e+07 -2.80321e-10 1.39592e+08 -3.67734e-09 -1.57847e+07)
(-6.77819e+07 -4.52992e+07 -2.82074e-09 1.3834e+08 -5.92554e-10 -1.57847e+07)
(-6.64463e+07 -4.82237e+07 -3.9195e-10 1.37005e+08 1.73401e-09 -1.57847e+07)
(-6.50277e+07 -5.11089e+07 8.30019e-10 1.35586e+08 -3.45728e-09 -1.57847e+07)
(-6.35274e+07 -5.39524e+07 1.38252e-09 1.34086e+08 -1.48188e-09 -1.57847e+07)
(-6.19464e+07 -5.6752e+07 -9.50364e-10 1.32505e+08 -2.57075e-10 -1.57847e+07)
(-6.02861e+07 -5.95052e+07 -1.87589e-09 1.30844e+08 -5.36293e-10 -1.57847e+07)
(-5.85479e+07 -6.22099e+07 -5.06731e-10 1.29106e+08 1.70402e-09 -1.57847e+07)
(-5.67332e+07 -6.48639e+07 -2.39477e-09 1.27291e+08 1.10572e-09 -1.57847e+07)
(-5.48434e+07 -6.74649e+07 9.25602e-10 1.25402e+08 3.0807e-10 -1.57847e+07)
(-5.28801e+07 -7.00109e+07 9.12614e-10 1.23438e+08 3.18293e-10 -1.57847e+07)
(-5.0845e+07 -7.24999e+07 9.01578e-10 1.21403e+08 -5.34823e-09 -1.57847e+07)
(-4.87395e+07 -7.49297e+07 -2.64549e-10 1.19298e+08 -2.00333e-09 -1.57847e+07)
(-4.65656e+07 -7.72984e+07 -4.36012e-10 1.17124e+08 3.65287e-09 -1.57847e+07)
(-4.43249e+07 -7.9604e+07 -4.26269e-09 1.14883e+08 1.58566e-10 -1.57847e+07)
(-4.20192e+07 -8.18447e+07 -1.59731e-09 1.12578e+08 1.24737e-09 -1.57847e+07)
(-3.96505e+07 -8.40187e+07 7.45579e-10 1.10209e+08 -1.61399e-09 -1.57847e+07)
(-3.72207e+07 -8.61241e+07 1.02042e-09 1.07779e+08 2.43566e-09 -1.57847e+07)
(-3.47318e+07 -8.81593e+07 9.66253e-10 1.0529e+08 2.44067e-09 -1.57847e+07)
(-3.21858e+07 -9.01226e+07 1.97899e-11 1.02744e+08 9.9061e-12 -1.57847e+07)
(-2.95847e+07 -9.20124e+07 8.0887e-10 1.00143e+08 -1.58312e-09 -1.57847e+07)
(-2.69307e+07 -9.38271e+07 8.50259e-10 9.7489e+07 -1.56128e-09 -1.57847e+07)
(-2.4226e+07 -9.55653e+07 -3.61772e-12 9.47843e+07 -2.00909e-12 -1.57847e+07)
(-2.14728e+07 -9.72256e+07 8.90907e-10 9.20311e+07 -1.53842e-09 -1.57847e+07)
(-1.86733e+07 -9.88065e+07 -3.46543e-09 8.92316e+07 2.07812e-09 -1.57847e+07)
(-1.58298e+07 -1.00307e+08 -3.50181e-09 8.63881e+07 2.0241e-09 -1.57847e+07)
(-1.29446e+07 -1.01725e+08 1.90496e-09 8.35028e+07 -3.00214e-09 -1.57847e+07)
(-1.002e+07 -1.03061e+08 5.207e-09 8.05783e+07 -8.4693e-10 -1.57847e+07)
(-7.05852e+06 -1.04313e+08 0 7.76168e+07 0 -1.57847e+07)
(-4.0625e+06 -1.05479e+08 -4.29151e-10 7.46208e+07 4.03053e-09 -1.57847e+07)
(-1.03439e+06 -1.06559e+08 -1.05067e-09 7.15927e+07 1.43419e-09 -1.57847e+07)
(2.02333e+06 -1.07553e+08 2.1176e-09 6.8535e+07 -2.85614e-09 -1.57847e+07)
(5.10818e+06 -1.08459e+08 -1.8509e-09 6.54501e+07 8.26389e-10 -1.57847e+07)
(8.21764e+06 -1.09276e+08 4.25369e-10 6.23407e+07 2.59029e-09 -1.57847e+07)
(1.13492e+07 -1.10004e+08 2.22397e-09 5.92091e+07 -2.77412e-09 -1.57847e+07)
(1.45002e+07 -1.10643e+08 -1.49142e-09 5.60581e+07 -1.2374e-09 -1.57847e+07)
(1.76682e+07 -1.11191e+08 -1.13903e-09 5.28901e+07 1.36508e-09 -1.57847e+07)
(2.08506e+07 -1.11649e+08 -2.17774e-09 4.97077e+07 -1.91442e-09 -1.57847e+07)
(2.40447e+07 -1.12015e+08 -9.62362e-10 4.65136e+07 -3.26802e-09 -1.57847e+07)
(2.7248e+07 -1.1229e+08 -1.91754e-09 4.33103e+07 6.43687e-10 -1.57847e+07)
(3.04578e+07 -1.12474e+08 -3.86503e-09 4.01005e+07 1.22103e-09 -1.57847e+07)
(3.36716e+07 -1.12566e+08 4.97993e-09 3.68867e+07 -5.07616e-09 -1.57847e+07)
(3.68867e+07 -1.12566e+08 3.90413e-09 3.36716e+07 -1.10427e-09 -1.57847e+07)
(4.01005e+07 -1.12474e+08 -7.83427e-09 3.04578e+07 2.10175e-09 -1.57847e+07)
(4.33103e+07 -1.1229e+08 -6.49817e-10 2.7248e+07 1.91096e-09 -1.57847e+07)
(4.65136e+07 -1.12015e+08 3.67956e-11 2.40447e+07 -5.25897e-09 -1.57847e+07)
(4.97077e+07 -1.11649e+08 1.28495e-09 2.08506e+07 1.46169e-09 -1.57847e+07)
(5.28901e+07 -1.11191e+08 -3.9649e-09 1.76682e+07 8.32376e-10 -1.57847e+07)
(5.60581e+07 -1.10643e+08 1.85455e-09 1.45002e+07 2.23526e-09 -1.57847e+07)
(5.92091e+07 -1.10004e+08 9.49075e-10 1.13492e+07 -4.48871e-09 -1.57847e+07)
(6.23406e+07 -1.09276e+08 1.99418e-09 8.21764e+06 -3.3636e-10 -1.57847e+07)
(6.54501e+07 -1.08459e+08 -2.23838e-09 5.10818e+06 2.93106e-09 -1.57847e+07)
(6.8535e+07 -1.07553e+08 2.30048e-09 2.02333e+06 3.11926e-09 -1.57847e+07)
(7.15927e+07 -1.06559e+08 -5.57696e-10 -1.03439e+06 -7.79243e-10 -1.57847e+07)
(7.46208e+07 -1.05479e+08 -9.85096e-12 -4.0625e+06 -1.41881e-11 -1.57847e+07)
(7.76168e+07 -1.04313e+08 -1.07506e-09 -7.05852e+06 -1.59657e-09 -1.57847e+07)
(8.05783e+07 -1.03061e+08 -3.0795e-09 -1.002e+07 -1.46521e-09 -1.57847e+07)
(8.35028e+07 -1.01725e+08 2.99993e-09 -1.29446e+07 -1.90845e-09 -1.57847e+07)
(8.63881e+07 -1.00307e+08 4.03422e-09 -1.58298e+07 -3.624e-09 -1.57847e+07)
(8.92316e+07 -9.88065e+07 -4.04243e-09 -1.86733e+07 1.54759e-10 -1.57847e+07)
(9.20311e+07 -9.72256e+07 -3.66993e-09 -2.14728e+07 4.31913e-09 -1.57847e+07)
(9.47843e+07 -9.55653e+07 2.03099e-09 -2.4226e+07 -4.52954e-12 -1.57847e+07)
(9.7489e+07 -9.38271e+07 4.25498e-12 -2.69307e+07 7.92645e-12 -1.57847e+07)
(1.00143e+08 -9.20124e+07 1.57931e-09 -2.95847e+07 -8.16218e-10 -1.57847e+07)
(1.02744e+08 -9.01226e+07 4.76621e-09 -3.21858e+07 -2.39314e-09 -1.57847e+07)
(1.0529e+08 -8.81593e+07 4.23847e-10 -3.47318e+07 8.77836e-10 -1.57847e+07)
(1.07779e+08 -8.61241e+07 -2.40598e-09 -3.72207e+07 3.25706e-09 -1.57847e+07)
(1.10209e+08 -8.40187e+07 3.95222e-10 -3.96505e+07 8.82028e-10 -1.57847e+07)
(1.12578e+08 -8.18447e+07 -1.15132e-09 -4.20192e+07 -2.67101e-09 -1.57847e+07)
(1.14883e+08 -7.9604e+07 -1.27693e-09 -4.43249e+07 1.56272e-09 -1.57847e+07)
(1.17124e+08 -7.72984e+07 5.11855e-12 -4.65656e+07 1.28742e-11 -1.57847e+07)
(1.19298e+08 -7.49297e+07 1.66353e-09 -4.87395e+07 -6.27003e-10 -1.57847e+07)
(1.21403e+08 -7.24999e+07 -3.34376e-10 -5.0845e+07 -9.16427e-10 -1.57847e+07)
(1.23438e+08 -7.00109e+07 -1.67939e-09 -5.28801e+07 5.83151e-10 -1.57847e+07)
(1.25402e+08 -6.74649e+07 3.6705e-09 -5.48434e+07 -2.30689e-10 -1.57847e+07)
(1.27291e+08 -6.48639e+07 1.19084e-11 -5.67332e+07 3.75608e-11 -1.57847e+07)
(1.29106e+08 -6.22099e+07 -4.83315e-09 -5.85479e+07 2.4456e-09 -1.57847e+07)
(1.30844e+08 -5.95052e+07 1.4418e-09 -6.02861e+07 -1.42427e-09 -1.57847e+07)
(1.32505e+08 -5.6752e+07 2.732e-09 -6.19464e+07 3.29149e-09 -1.57847e+07)
(1.34086e+08 -5.39524e+07 -2.41253e-10 -6.35274e+07 -9.45221e-10 -1.57847e+07)
(1.35586e+08 -5.11089e+07 -3.90547e-09 -6.50277e+07 -1.03685e-09 -1.57847e+07)
(1.37005e+08 -4.82237e+07 3.67429e-09 -6.64463e+07 1.32717e-10 -1.57847e+07)
(1.3834e+08 -4.52992e+07 2.14294e-09 -6.77819e+07 1.55367e-09 -1.57847e+07)
(1.39592e+08 -4.23377e+07 -5.23653e-09 -6.90334e+07 1.01128e-09 -1.57847e+07)
(1.40758e+08 -3.93416e+07 0 -7.01999e+07 0 -1.57847e+07)
(1.41839e+08 -3.63135e+07 6.36453e-10 -7.12803e+07 3.84072e-09 -1.57847e+07)
(1.42832e+08 -3.32558e+07 5.27183e-09 -7.22738e+07 -8.07261e-10 -1.57847e+07)
(1.43738e+08 -3.0171e+07 -2.01907e-09 -7.31796e+07 -1.64714e-09 -1.57847e+07)
(1.44555e+08 -2.70615e+07 -5.1788e-09 -7.3997e+07 1.59044e-09 -1.57847e+07)
(1.45283e+08 -2.393e+07 1.66399e-09 -7.47252e+07 -1.15344e-09 -1.57847e+07)
(1.45922e+08 -2.07789e+07 1.67908e-09 -7.53637e+07 -1.14264e-09 -1.57847e+07)
(1.4647e+08 -1.76109e+07 1.69625e-09 -7.59119e+07 -1.10545e-09 -1.57847e+07)
(1.46928e+08 -1.44286e+07 -1.24132e-10 -7.63695e+07 -1.92906e-09 -1.57847e+07)
(1.47294e+08 -1.12344e+07 4.82868e-11 -7.67359e+07 9.6532e-10 -1.57847e+07)
(1.47569e+08 -8.03116e+06 0 -7.70111e+07 0 -1.57847e+07)
(1.47753e+08 -4.82131e+06 -4.14027e-11 -7.71946e+07 -1.93261e-09 -1.57847e+07)
(1.47845e+08 -1.60754e+06 0 -7.72864e+07 0 -1.57847e+07)
(-7.536e+07 -1.57434e+06 1.47718e-11 1.45121e+08 -1.72485e-09 -1.52504e+07)
(-7.52701e+07 -4.72173e+06 1.26278e-11 1.45031e+08 2.70519e-13 -1.52504e+07)
(-7.50904e+07 -7.86527e+06 -3.84108e-09 1.44851e+08 -1.37184e-10 -1.52504e+07)
(-7.48209e+07 -1.10024e+07 -1.99345e-09 1.44582e+08 1.62735e-09 -1.52504e+07)
(-7.4462e+07 -1.41305e+07 2.87048e-09 1.44223e+08 1.84711e-10 -1.52504e+07)
(-7.40139e+07 -1.72472e+07 -1.62191e-09 1.43775e+08 -3.58814e-09 -1.52504e+07)
(-7.3477e+07 -2.03497e+07 -9.68885e-10 1.43238e+08 -9.01908e-11 -1.52504e+07)
(-7.28517e+07 -2.34357e+07 -2.25632e-09 1.42613e+08 3.22713e-09 -1.52504e+07)
(-7.21385e+07 -2.65025e+07 7.38252e-10 1.41899e+08 1.82775e-09 -1.52504e+07)
(-7.13381e+07 -2.95478e+07 1.93209e-09 1.41099e+08 2.63727e-10 -1.52504e+07)
(-7.0451e+07 -3.25689e+07 7.59118e-10 1.40212e+08 -5.11877e-09 -1.52504e+07)
(-6.9478e+07 -3.55635e+07 5.84061e-10 1.39239e+08 -3.40008e-09 -1.52504e+07)
(-6.84199e+07 -3.8529e+07 6.55642e-10 1.38181e+08 7.12934e-09 -1.52504e+07)
(-6.72775e+07 -4.14632e+07 -3.49067e-10 1.37038e+08 1.68933e-09 -1.52504e+07)
(-6.60518e+07 -4.43635e+07 7.1781e-10 1.35813e+08 -3.37433e-09 -1.52504e+07)
(-6.47438e+07 -4.72276e+07 1.87676e-09 1.34505e+08 4.22321e-10 -1.52504e+07)
(-6.33546e+07 -5.00532e+07 9.25377e-10 1.33115e+08 2.22163e-10 -1.52504e+07)
(-6.18852e+07 -5.2838e+07 -4.08225e-10 1.31646e+08 1.67602e-09 -1.52504e+07)
(-6.03369e+07 -5.55797e+07 -8.96067e-10 1.30098e+08 3.33142e-09 -1.52504e+07)
(-5.87109e+07 -5.82761e+07 4.66162e-09 1.28472e+08 -2.25534e-09 -1.52504e+07)
(-5.70086e+07 -6.09249e+07 2.41867e-11 1.26769e+08 7.28984e-12 -1.52504e+07)
(-5.52314e+07 -6.35241e+07 9.03491e-10 1.24992e+08 2.86447e-10 -1.52504e+07)
(-5.33806e+07 -6.60714e+07 3.29924e-09 1.23141e+08 -7.1985e-10 -1.52504e+07)
(-5.14579e+07 -6.85648e+07 3.36509e-10 1.21219e+08 1.94418e-09 -1.52504e+07)
(-4.94647e+07 -7.10023e+07 -9.05886e-10 1.19226e+08 -3.30529e-10 -1.52504e+07)
(-4.74028e+07 -7.3382e+07 -1.77756e-09 1.17164e+08 -6.77491e-10 -1.52504e+07)
(-4.52737e+07 -7.57017e+07 -6.23253e-10 1.15035e+08 1.60845e-09 -1.52504e+07)
(-4.30793e+07 -7.79597e+07 4.53835e-12 1.1284e+08 1.87985e-12 -1.52504e+07)
(-4.08213e+07 -8.01542e+07 3.60508e-09 1.10582e+08 -5.95938e-09 -1.52504e+07)
(-3.85015e+07 -8.22832e+07 1.59013e-09 1.08262e+08 -1.17765e-09 -1.52504e+07)
(-3.61219e+07 -8.43452e+07 -1.46693e-09 1.05883e+08 3.12243e-09 -1.52504e+07)
(-3.36844e+07 -8.63383e+07 -1.57979e-11 1.03445e+08 -7.62775e-12 -1.52504e+07)
(-3.1191e+07 -8.8261e+07 8.80065e-11 1.00952e+08 1.973e-09 -1.52504e+07)
(-2.86436e+07 -9.01118e+07 -8.0744e-10 9.84045e+07 1.52433e-09 -1.52504e+07)
(-2.60445e+07 -9.1889e+07 -8.81255e-10 9.58053e+07 -2.43079e-09 -1.52504e+07)
(-2.33956e+07 -9.35913e+07 1.67833e-09 9.31565e+07 -1.041e-09 -1.52504e+07)
(-2.06993e+07 -9.52173e+07 0 9.04601e+07 0 -1.52504e+07)
(-1.79576e+07 -9.67656e+07 1.65863e-09 8.77184e+07 9.84109e-10 -1.52504e+07)
(-1.51728e+07 -9.8235e+07 1.62945e-09 8.49337e+07 9.98527e-10 -1.52504e+07)
(-1.23472e+07 -9.96242e+07 1.81885e-09 8.2108e+07 -2.93155e-09 -1.52504e+07)
(-9.48305e+06 -1.00932e+08 1.62142e-09 7.92439e+07 1.05846e-09 -1.52504e+07)
(-6.58273e+06 -1.02158e+08 -1.93732e-09 7.63436e+07 2.85451e-09 -1.52504e+07)
(-3.64859e+06 -1.033e+08 -1.95714e-09 7.34094e+07 2.84096e-09 -1.52504e+07)
(-683032 -1.04358e+08 1.54779e-09 7.04439e+07 1.10773e-09 -1.52504e+07)
(2.31153e+06 -1.05331e+08 -1.78153e-09 6.74493e+07 8.29387e-10 -1.52504e+07)
(5.33267e+06 -1.06218e+08 -9.21855e-12 6.44282e+07 -7.00415e-12 -1.52504e+07)
(8.3779e+06 -1.07019e+08 2.59291e-09 6.1383e+07 -1.61185e-10 -1.52504e+07)
(1.14447e+07 -1.07732e+08 -2.91851e-09 5.83161e+07 2.07869e-09 -1.52504e+07)
(1.45307e+07 -1.08357e+08 4.39965e-09 5.52302e+07 -5.31491e-09 -1.52504e+07)
(1.76333e+07 -1.08894e+08 4.00586e-10 5.21276e+07 -1.92628e-09 -1.52504e+07)
(2.07499e+07 -1.09342e+08 -2.70655e-09 4.9011e+07 4.51067e-09 -1.52504e+07)
(2.3878e+07 -1.09701e+08 -4.37478e-10 4.58828e+07 1.93029e-09 -1.52504e+07)
(2.70152e+07 -1.09971e+08 -1.16717e-09 4.27457e+07 1.2701e-09 -1.52504e+07)
(3.01587e+07 -1.10151e+08 1.18873e-09 3.96022e+07 -1.24991e-09 -1.52504e+07)
(3.33061e+07 -1.1024e+08 3.7891e-09 3.64548e+07 -1.10895e-09 -1.52504e+07)
(3.64548e+07 -1.1024e+08 -5.0046e-09 3.33061e+07 2.29442e-09 -1.52504e+07)
(3.96022e+07 -1.10151e+08 -1.25185e-09 3.01587e+07 1.18671e-09 -1.52504e+07)
(4.27457e+07 -1.09971e+08 3.85033e-09 2.70152e+07 -9.27169e-10 -1.52504e+07)
(4.58828e+07 -1.09701e+08 6.25335e-10 2.3878e+07 -1.87986e-09 -1.52504e+07)
(4.9011e+07 -1.09342e+08 1.66786e-11 2.07499e+07 1.89726e-11 -1.52504e+07)
(5.21276e+07 -1.08894e+08 6.15555e-10 1.76333e+07 7.20722e-10 -1.52504e+07)
(5.52302e+07 -1.08357e+08 1.32839e-09 1.45307e+07 -1.10032e-09 -1.52504e+07)
(5.83161e+07 -1.07732e+08 -7.41981e-10 1.14447e+07 1.82826e-09 -1.52504e+07)
(6.1383e+07 -1.07019e+08 1.35992e-09 8.3779e+06 -1.06111e-09 -1.52504e+07)
(6.44282e+07 -1.06218e+08 4.11652e-09 5.33267e+06 -3.13563e-09 -1.52504e+07)
(6.74493e+07 -1.05331e+08 -1.63004e-09 2.31154e+06 3.60203e-09 -1.52504e+07)
(7.04439e+07 -1.04358e+08 -4.21623e-09 -683032 3.00025e-09 -1.52504e+07)
(7.34094e+07 -1.033e+08 1.10213e-09 -3.64859e+06 1.58737e-09 -1.52504e+07)
(7.63436e+07 -1.02158e+08 -1.07445e-09 -6.58273e+06 -1.59567e-09 -1.52504e+07)
(7.92439e+07 -1.00932e+08 1.05635e-09 -9.48305e+06 1.61819e-09 -1.52504e+07)
(8.2108e+07 -9.96242e+07 5.13473e-10 -1.23472e+07 8.11663e-10 -1.52504e+07)
(8.49337e+07 -9.8235e+07 -9.9651e-10 -1.51728e+07 -1.62616e-09 -1.52504e+07)
(8.77184e+07 -9.67656e+07 5.07576e-10 -1.79576e+07 -2.52492e-09 -1.52504e+07)
(9.04601e+07 -9.52173e+07 3.94961e-09 -2.06993e+07 -4.95464e-11 -1.52504e+07)
(9.31565e+07 -9.35913e+07 4.63913e-10 -2.33956e+07 8.35358e-10 -1.52504e+07)
(9.58053e+07 -9.1889e+07 -4.60235e-10 -2.60445e+07 -8.57354e-10 -1.52504e+07)
(9.84045e+07 -9.01118e+07 4.3987e-10 -2.86436e+07 8.48265e-10 -1.52504e+07)
(1.00952e+08 -8.8261e+07 -8.63276e-10 -3.1191e+07 -1.72461e-09 -1.52504e+07)
(1.03445e+08 -8.63383e+07 2.27023e-09 -3.36844e+07 -3.23233e-09 -1.52504e+07)
(1.05883e+08 -8.43452e+07 3.25633e-12 -3.61219e+07 6.99783e-12 -1.52504e+07)
(1.08262e+08 -8.22832e+07 -4.72492e-09 -3.85015e+07 2.11024e-09 -1.52504e+07)
(1.10582e+08 -8.01542e+07 -3.16457e-09 -4.08213e+07 1.37362e-09 -1.52504e+07)
(1.1284e+08 -7.79597e+07 4.77546e-09 -4.30793e+07 -1.99325e-09 -1.52504e+07)
(1.15035e+08 -7.57017e+07 3.56629e-09 -4.52737e+07 -3.67708e-10 -1.52504e+07)
(1.17164e+08 -7.3382e+07 -4.83768e-09 -4.74028e+07 1.83706e-09 -1.52504e+07)
(1.19226e+08 -7.10023e+07 -2.28064e-09 -4.94647e+07 -1.21822e-09 -1.52504e+07)
(1.21219e+08 -6.85648e+07 -6.32232e-10 -5.14579e+07 -1.81274e-09 -1.52504e+07)
(1.23141e+08 -6.60714e+07 5.20847e-09 -5.33806e+07 -7.37201e-10 -1.52504e+07)
(1.24992e+08 -6.35241e+07 -5.71408e-10 -5.52314e+07 -1.8023e-09 -1.52504e+07)
(1.26769e+08 -6.09249e+07 -4.68178e-09 -5.70086e+07 2.39844e-09 -1.52504e+07)
(1.28472e+08 -5.82761e+07 5.23526e-09 -5.87109e+07 -5.13463e-10 -1.52504e+07)
(1.30098e+08 -5.55797e+07 5.31352e-12 -6.03369e+07 1.96431e-11 -1.52504e+07)
(1.31646e+08 -5.2838e+07 -3.8237e-09 -6.18852e+07 -1.03151e-09 -1.52504e+07)
(1.33115e+08 -5.00532e+07 2.94859e-12 -6.33546e+07 1.22817e-11 -1.52504e+07)
(1.34505e+08 -4.72276e+07 4.18701e-10 -6.47438e+07 1.86067e-09 -1.52504e+07)
(1.35813e+08 -4.43635e+07 1.29648e-09 -6.60518e+07 -2.21867e-09 -1.52504e+07)
(1.37038e+08 -4.14632e+07 -1.87818e-09 -6.72775e+07 -6.18378e-10 -1.52504e+07)
(1.38181e+08 -3.8529e+07 3.56174e-09 -6.84199e+07 3.11593e-10 -1.52504e+07)
(1.39239e+08 -3.55635e+07 1.86021e-09 -6.9478e+07 6.74527e-10 -1.52504e+07)
(1.40212e+08 -3.25689e+07 -3.27027e-09 -7.0451e+07 1.44765e-09 -1.52504e+07)
(1.41099e+08 -2.95478e+07 -2.58459e-10 -7.13381e+07 -1.8935e-09 -1.52504e+07)
(1.41899e+08 -2.65025e+07 -3.19152e-09 -7.21385e+07 2.32725e-09 -1.52504e+07)
(1.42613e+08 -2.34357e+07 -3.32739e-09 -7.28517e+07 1.32371e-09 -1.52504e+07)
(1.43238e+08 -2.03497e+07 1.80709e-09 -7.3477e+07 8.0272e-10 -1.52504e+07)
(1.43775e+08 -1.72472e+07 3.28856e-09 -7.40139e+07 -2.18458e-09 -1.52504e+07)
(1.44223e+08 -1.41305e+07 1.72176e-09 -7.4462e+07 -1.04464e-10 -1.52504e+07)
(1.44582e+08 -1.10024e+07 -9.63513e-11 -7.48209e+07 -1.9262e-09 -1.52504e+07)
(1.44851e+08 -7.86527e+06 0 -7.50904e+07 0 -1.52504e+07)
(1.45031e+08 -4.72173e+06 0 -7.52701e+07 0 -1.52504e+07)
(1.45121e+08 -1.57434e+06 0 -7.536e+07 0 -1.52504e+07)
(-7.38614e+07 -1.5459e+06 -9.67121e-10 1.42636e+08 -6.90535e-12 -1.47999e+07)
(-7.37731e+07 -4.63643e+06 -5.96011e-11 1.42548e+08 3.35256e-09 -1.47999e+07)
(-7.35966e+07 -7.72318e+06 8.3464e-10 1.42372e+08 3.38501e-09 -1.47999e+07)
(-7.33321e+07 -1.08036e+07 3.27807e-10 1.42107e+08 -6.69812e-09 -1.47999e+07)
(-7.29796e+07 -1.38753e+07 2.1307e-09 1.41755e+08 -3.2229e-09 -1.47999e+07)
(-7.25396e+07 -1.69356e+07 -2.43734e-09 1.41315e+08 6.53505e-09 -1.47999e+07)
(-7.20124e+07 -1.99821e+07 -7.20287e-12 1.40787e+08 -6.70498e-13 -1.47999e+07)
(-7.13984e+07 -2.30123e+07 2.27668e-09 1.40173e+08 -3.12762e-09 -1.47999e+07)
(-7.06981e+07 -2.60238e+07 3.7679e-10 1.39473e+08 -3.33196e-09 -1.47999e+07)
(-6.99121e+07 -2.9014e+07 9.48382e-10 1.38687e+08 1.29452e-10 -1.47999e+07)
(-6.90411e+07 -3.19805e+07 3.26119e-09 1.37816e+08 3.88379e-09 -1.47999e+07)
(-6.80856e+07 -3.4921e+07 -1.87432e-09 1.36861e+08 -3.10598e-10 -1.47999e+07)
(-6.70467e+07 -3.7833e+07 -5.83323e-10 1.35822e+08 3.30196e-09 -1.47999e+07)
(-6.59249e+07 -4.07141e+07 -2.39848e-11 1.347e+08 -4.6819e-12 -1.47999e+07)
(-6.47214e+07 -4.3562e+07 -2.45195e-10 1.33496e+08 -3.47776e-09 -1.47999e+07)
(-6.3437e+07 -4.63744e+07 0 1.32212e+08 0 -1.47999e+07)
(-6.20728e+07 -4.9149e+07 -9.40424e-10 1.30848e+08 -2.25776e-10 -1.47999e+07)
(-6.063e+07 -5.18835e+07 0 1.29405e+08 0 -1.47999e+07)
(-5.91097e+07 -5.45756e+07 3.56147e-09 1.27885e+08 -5.98377e-09 -1.47999e+07)
(-5.75131e+07 -5.72233e+07 1.84061e-09 1.26288e+08 5.26207e-10 -1.47999e+07)
(-5.58415e+07 -5.98243e+07 -3.79416e-09 1.24616e+08 5.86056e-09 -1.47999e+07)
(-5.40964e+07 -6.23765e+07 9.85313e-10 1.22871e+08 -3.20517e-09 -1.47999e+07)
(-5.22791e+07 -6.48778e+07 -1.81212e-09 1.21054e+08 -6.03131e-10 -1.47999e+07)
(-5.03911e+07 -6.73262e+07 -3.12164e-09 1.19166e+08 6.01357e-09 -1.47999e+07)
(-4.84339e+07 -6.97197e+07 8.856e-10 1.17209e+08 3.23128e-10 -1.47999e+07)
(-4.64092e+07 -7.20563e+07 2.09325e-09 1.15184e+08 -2.79054e-09 -1.47999e+07)
(-4.43186e+07 -7.43341e+07 8.82734e-10 1.13094e+08 3.50958e-10 -1.47999e+07)
(-4.21639e+07 -7.65513e+07 1.75526e-09 1.10939e+08 7.27054e-10 -1.47999e+07)
(-3.99466e+07 -7.87061e+07 -8.8815e-10 1.08722e+08 -3.82832e-10 -1.47999e+07)
(-3.76688e+07 -8.07967e+07 1.56995e-11 1.06444e+08 7.03469e-12 -1.47999e+07)
(-3.53322e+07 -8.28214e+07 -1.40358e-09 1.04107e+08 3.04519e-09 -1.47999e+07)
(-3.29387e+07 -8.47786e+07 -6.51442e-12 1.01714e+08 -3.14536e-12 -1.47999e+07)
(-3.04903e+07 -8.66666e+07 2.18527e-11 9.92653e+07 1.09386e-11 -1.47999e+07)
(-2.7989e+07 -8.84839e+07 -2.3977e-09 9.67639e+07 2.53374e-09 -1.47999e+07)
(-2.54368e+07 -9.0229e+07 2.42727e-09 9.42118e+07 -2.50266e-09 -1.47999e+07)
(-2.28358e+07 -9.19006e+07 1.63861e-09 9.16108e+07 -2.92544e-09 -1.47999e+07)
(-2.01882e+07 -9.34972e+07 1.65902e-09 8.89631e+07 -2.91391e-09 -1.47999e+07)
(-1.7496e+07 -9.50175e+07 6.22135e-12 8.6271e+07 3.69128e-12 -1.47999e+07)
(-1.47615e+07 -9.64603e+07 -5.13853e-09 8.35365e+07 4.71624e-09 -1.47999e+07)
(-1.19869e+07 -9.78245e+07 1.77618e-09 8.07619e+07 -2.84405e-09 -1.47999e+07)
(-9.17454e+06 -9.91089e+07 2.58278e-10 7.79495e+07 -3.83567e-09 -1.47999e+07)
(-6.32662e+06 -1.00312e+08 -1.88294e-09 7.51016e+07 2.77448e-09 -1.47999e+07)
(-3.44549e+06 -1.01434e+08 0 7.22205e+07 0 -1.47999e+07)
(-533506 -1.02473e+08 -3.96556e-10 6.93085e+07 3.83952e-09 -1.47999e+07)
(2.40696e+06 -1.03429e+08 -5.82193e-12 6.6368e+07 -4.29371e-12 -1.47999e+07)
(5.37352e+06 -1.043e+08 5.83388e-09 6.34015e+07 2.21418e-10 -1.47999e+07)
(8.36373e+06 -1.05086e+08 -2.05683e-09 6.04112e+07 2.64815e-09 -1.47999e+07)
(1.13752e+07 -1.05786e+08 1.4737e-09 5.73998e+07 1.18758e-09 -1.47999e+07)
(1.44054e+07 -1.064e+08 1.48096e-09 5.43696e+07 1.22873e-09 -1.47999e+07)
(1.74519e+07 -1.06927e+08 -1.45018e-09 5.13231e+07 -1.23857e-09 -1.47999e+07)