/*--------------------------------*- C++ -*----------------------------------*\
| =========                 |                                                 |
| \\      /  F ield         | OpenFOAM: The Open Source CFD Toolbox           |
|  \\    /   O peration     | Version:  2312                                  |
|   \\  /    A nd           | Website:  www.openfoam.com                      |
|    \\/     M anipulation  |                                                 |
\*---------------------------------------------------------------------------*/
FoamFile
{
    version     2.0;
    format      ascii;
    arch        "LSB;label=32;scalar=64";
    class       pointVectorField;
    location    "60";
    object      pointD;
}
// * * * * * * * * * * * * * * * * * * * * * * * * * * * * * * * * * * * * * //

dimensions      [0 1 0 0 0 0 0];

internalField   nonuniform List<vector> 
26196
(
(2.11496 0 0)
(1.60804 0 0)
(0 2.11496 0)
(0 1.60804 0)
(2.11496 0 0)
(1.60804 0 0)
(0 1.60804 0)
(0 2.11496 0)
(2.10052 0 0)
(2.08639 0 0)
(2.07268 0 0)
(2.05925 0 0)
(2.04616 0 0)
(2.03337 0 0)
(2.02089 0 0)
(2.0087 0 0)
(1.99681 0 0)
(1.9852 0 0)
(1.97387 0 0)
(1.96281 0 0)
(1.95202 0 0)
(1.94148 0 0)
(1.9312 0 0)
(1.92117 0 0)
(1.91138 0 0)
(1.90183 0 0)
(1.89251 0 0)
(1.88342 0 0)
(1.87455 0 0)
(1.86589 0 0)
(1.85745 0 0)
(1.84922 0 0)
(1.84119 0 0)
(1.83336 0 0)
(1.82573 0 0)
(1.81828 0 0)
(1.81103 0 0)
(1.80395 0 0)
(1.79706 0 0)
(1.79034 0 0)
(1.78379 0 0)
(1.77741 0 0)
(1.77119 0 0)
(1.76513 0 0)
(1.75924 0 0)
(1.75349 0 0)
(1.7479 0 0)
(1.74246 0 0)
(1.73716 0 0)
(1.732 0 0)
(1.72698 0 0)
(1.7221 0 0)
(1.71735 0 0)
(1.71274 0 0)
(1.70825 0 0)
(1.70389 0 0)
(1.69965 0 0)
(1.69553 0 0)
(1.69153 0 0)
(1.68765 0 0)
(1.68388 0 0)
(1.68023 0 0)
(1.67668 0 0)
(1.67325 0 0)
(1.66991 0 0)
(1.66669 0 0)
(1.66356 0 0)
(1.66053 0 0)
(1.65761 0 0)
(1.65478 0 0)
(1.65204 0 0)
(1.64939 0 0)
(1.64684 0 0)
(1.64438 0 0)
(1.642 0 0)
(1.63971 0 0)
(1.63751 0 0)
(1.63539 0 0)
(1.63335 0 0)
(1.63139 0 0)
(1.62951 0 0)
(1.62771 0 0)
(1.62598 0 0)
(1.62433 0 0)
(1.62275 0 0)
(1.62124 0 0)
(1.61981 0 0)
(1.61844 0 0)
(1.61715 0 0)
(1.61592 0 0)
(1.61476 0 0)
(1.61366 0 0)
(1.61263 0 0)
(1.61166 0 0)
(1.61075 0 0)
(1.6099 0 0)
(1.60912 0 0)
(1.60839 0 0)
(1.60772 0 0)
(1.60711 0 0)
(1.60655 0 0)
(1.60605 0 0)
(1.60561 0 0)
(1.60522 0 0)
(1.60488 0 0)
(1.60459 0 0)
(1.60436 0 0)
(1.60417 0 0)
(1.60404 0 0)
(1.60395 0 0)
(1.60391 0 0)
(1.60392 0 0)
(1.60397 0 0)
(1.60408 0 0)
(1.60422 0 0)
(1.60441 0 0)
(1.60465 0 0)
(1.60493 0 0)
(1.60525 0 0)
(1.60561 0 0)
(1.60601 0 0)
(1.60646 0 0)
(1.60694 0 0)
(1.60747 0 0)
(1.60788 0.022962 0)
(1.60738 0.0459193 0)
(1.60656 0.0688672 0)
(1.60542 0.0918011 0)
(1.60394 0.114716 0)
(1.60214 0.137608 0)
(1.60001 0.160472 0)
(1.59756 0.183303 0)
(1.59478 0.206096 0)
(1.59167 0.228848 0)
(1.58824 0.251553 0)
(1.58449 0.274207 0)
(1.58041 0.296804 0)
(1.57601 0.319341 0)
(1.57129 0.341813 0)
(1.56625 0.364216 0)
(1.56089 0.386544 0)
(1.55521 0.408793 0)
(1.54921 0.430959 0)
(1.5429 0.453037 0)
(1.53628 0.475023 0)
(1.52934 0.496912 0)
(1.52209 0.518699 0)
(1.51452 0.540381 0)
(1.50665 0.561952 0)
(1.49847 0.583409 0)
(1.48999 0.604747 0)
(1.4812 0.625962 0)
(1.47211 0.647049 0)
(1.46272 0.668004 0)
(1.45304 0.688823 0)
(1.44305 0.709501 0)
(1.43277 0.730035 0)
(1.4222 0.75042 0)
(1.41134 0.770652 0)
(1.40019 0.790726 0)
(1.38876 0.81064 0)
(1.37704 0.830388 0)
(1.36505 0.849967 0)
(1.35277 0.869372 0)
(1.34022 0.8886 0)
(1.32739 0.907647 0)
(1.3143 0.926509 0)
(1.30093 0.945182 0)
(1.2873 0.963662 0)
(1.27341 0.981946 0)
(1.25926 1.00003 0)
(1.24485 1.01791 0)
(1.23019 1.03558 0)
(1.21528 1.05304 0)
(1.20011 1.07029 0)
(1.18471 1.08732 0)
(1.16906 1.10412 0)
(1.15318 1.1207 0)
(1.13706 1.13706 0)
(1.1207 1.15318 0)
(1.10412 1.16906 0)
(1.08732 1.18471 0)
(1.07029 1.20011 0)
(1.05304 1.21528 0)
(1.03558 1.23019 0)
(1.01791 1.24485 0)
(1.00003 1.25926 0)
(0.981946 1.27341 0)
(0.963662 1.2873 0)
(0.945182 1.30093 0)
(0.926509 1.3143 0)
(0.907647 1.32739 0)
(0.8886 1.34022 0)
(0.869372 1.35277 0)
(0.849967 1.36505 0)
(0.830388 1.37704 0)
(0.81064 1.38876 0)
(0.790726 1.40019 0)
(0.770652 1.41134 0)
(0.75042 1.4222 0)
(0.730035 1.43277 0)
(0.709501 1.44305 0)
(0.688823 1.45304 0)
(0.668004 1.46272 0)
(0.647049 1.47211 0)
(0.625962 1.4812 0)
(0.604747 1.48999 0)
(0.583409 1.49847 0)
(0.561952 1.50665 0)
(0.540381 1.51452 0)
(0.518699 1.52209 0)
(0.496912 1.52934 0)
(0.475023 1.53628 0)
(0.453037 1.5429 0)
(0.430959 1.54921 0)
(0.408793 1.55521 0)
(0.386544 1.56089 0)
(0.364216 1.56625 0)
(0.341813 1.57129 0)
(0.319341 1.57601 0)
(0.296804 1.58041 0)
(0.274207 1.58449 0)
(0.251553 1.58824 0)
(0.228848 1.59167 0)
(0.206096 1.59478 0)
(0.183303 1.59756 0)
(0.160472 1.60001 0)
(0.137608 1.60214 0)
(0.114716 1.60394 0)
(0.0918011 1.60542 0)
(0.0688672 1.60656 0)
(0.0459193 1.60738 0)
(0.022962 1.60788 0)
(0 1.60747 0)
(0 1.60694 0)
(0 1.60646 0)
(0 1.60601 0)
(0 1.60561 0)
(0 1.60525 0)
(0 1.60493 0)
(0 1.60465 0)
(0 1.60441 0)
(0 1.60422 0)
(0 1.60408 0)
(0 1.60397 0)
(0 1.60392 0)
(0 1.60391 0)
(0 1.60395 0)
(0 1.60404 0)
(0 1.60417 0)
(0 1.60436 0)
(0 1.60459 0)
(0 1.60488 0)
(0 1.60522 0)
(0 1.60561 0)
(0 1.60605 0)
(0 1.60655 0)
(0 1.60711 0)
(0 1.60772 0)
(0 1.60839 0)
(0 1.60912 0)
(0 1.6099 0)
(0 1.61075 0)
(0 1.61166 0)
(0 1.61263 0)
(0 1.61366 0)
(0 1.61476 0)
(0 1.61592 0)
(0 1.61715 0)
(0 1.61844 0)
(0 1.61981 0)
(0 1.62124 0)
(0 1.62275 0)
(0 1.62433 0)
(0 1.62598 0)
(0 1.62771 0)
(0 1.62951 0)
(0 1.63139 0)
(0 1.63335 0)
(0 1.63539 0)
(0 1.63751 0)
(0 1.63971 0)
(0 1.642 0)
(0 1.64438 0)
(0 1.64684 0)
(0 1.64939 0)
(0 1.65204 0)
(0 1.65478 0)
(0 1.65761 0)
(0 1.66053 0)
(0 1.66356 0)
(0 1.66669 0)
(0 1.66991 0)
(0 1.67325 0)
(0 1.67668 0)
(0 1.68023 0)
(0 1.68388 0)
(0 1.68765 0)
(0 1.69153 0)
(0 1.69553 0)
(0 1.69965 0)
(0 1.70389 0)
(0 1.70825 0)
(0 1.71274 0)
(0 1.71735 0)
(0 1.7221 0)
(0 1.72698 0)
(0 1.732 0)
(0 1.73716 0)
(0 1.74246 0)
(0 1.7479 0)
(0 1.75349 0)
(0 1.75924 0)
(0 1.76513 0)
(0 1.77119 0)
(0 1.77741 0)
(0 1.78379 0)
(0 1.79034 0)
(0 1.79706 0)
(0 1.80395 0)
(0 1.81103 0)
(0 1.81828 0)
(0 1.82573 0)
(0 1.83336 0)
(0 1.84119 0)
(0 1.84922 0)
(0 1.85745 0)
(0 1.86589 0)
(0 1.87455 0)
(0 1.88342 0)
(0 1.89251 0)
(0 1.90183 0)
(0 1.91138 0)
(0 1.92117 0)
(0 1.9312 0)
(0 1.94148 0)
(0 1.95202 0)
(0 1.96281 0)
(0 1.97387 0)
(0 1.9852 0)
(0 1.99681 0)
(0 2.0087 0)
(0 2.02089 0)
(0 2.03337 0)
(0 2.04616 0)
(0 2.05925 0)
(0 2.07268 0)
(0 2.08639 0)
(0 2.10052 0)
(0.0302005 2.11474 0)
(0.0603948 2.11409 0)
(0.0905768 2.11302 0)
(0.12074 2.11151 0)
(0.150879 2.10957 0)
(0.180987 2.1072 0)
(0.211059 2.1044 0)
(0.241087 2.10117 0)
(0.271066 2.09751 0)
(0.30099 2.09343 0)
(0.330852 2.08892 0)
(0.360647 2.08398 0)
(0.390368 2.07862 0)
(0.42001 2.07283 0)
(0.449566 2.06662 0)
(0.479031 2.05999 0)
(0.508397 2.05294 0)
(0.537661 2.04547 0)
(0.566814 2.03759 0)
(0.595852 2.02929 0)
(0.624768 2.02057 0)
(0.653557 2.01144 0)
(0.682213 2.00191 0)
(0.71073 1.99196 0)
(0.739101 1.98161 0)
(0.767322 1.97085 0)
(0.795387 1.95969 0)
(0.823289 1.94814 0)
(0.851024 1.93618 0)
(0.878585 1.92383 0)
(0.905966 1.91109 0)
(0.933163 1.89796 0)
(0.96017 1.88444 0)
(0.986981 1.87054 0)
(1.01359 1.85625 0)
(1.03999 1.84159 0)
(1.06618 1.82655 0)
(1.09216 1.81114 0)
(1.11791 1.79536 0)
(1.14343 1.77921 0)
(1.16872 1.76271 0)
(1.19377 1.74584 0)
(1.21858 1.72861 0)
(1.24314 1.71104 0)
(1.26745 1.69311 0)
(1.29149 1.67484 0)
(1.31528 1.65623 0)
(1.33879 1.63728 0)
(1.36204 1.61799 0)
(1.385 1.59838 0)
(1.40768 1.57844 0)
(1.43008 1.55818 0)
(1.45218 1.5376 0)
(1.47399 1.5167 0)
(1.4955 1.4955 0)
(1.5167 1.47399 0)
(1.5376 1.45218 0)
(1.55818 1.43008 0)
(1.57844 1.40768 0)
(1.59838 1.385 0)
(1.61799 1.36204 0)
(1.63728 1.33879 0)
(1.65623 1.31528 0)
(1.67484 1.29149 0)
(1.69311 1.26745 0)
(1.71104 1.24314 0)
(1.72861 1.21858 0)
(1.74584 1.19377 0)
(1.76271 1.16872 0)
(1.77921 1.14343 0)
(1.79536 1.11791 0)
(1.81114 1.09216 0)
(1.82655 1.06618 0)
(1.84159 1.03999 0)
(1.85625 1.01359 0)
(1.87054 0.986981 0)
(1.88444 0.96017 0)
(1.89796 0.933163 0)
(1.91109 0.905966 0)
(1.92383 0.878584 0)
(1.93618 0.851024 0)
(1.94814 0.823289 0)
(1.95969 0.795387 0)
(1.97085 0.767322 0)
(1.98161 0.739101 0)
(1.99196 0.71073 0)
(2.00191 0.682213 0)
(2.01144 0.653557 0)
(2.02057 0.624768 0)
(2.02929 0.595852 0)
(2.03759 0.566814 0)
(2.04547 0.537661 0)
(2.05294 0.508397 0)
(2.05999 0.479031 0)
(2.06662 0.449566 0)
(2.07283 0.42001 0)
(2.07862 0.390368 0)
(2.08398 0.360647 0)
(2.08892 0.330852 0)
(2.09343 0.30099 0)
(2.09751 0.271066 0)
(2.10117 0.241087 0)
(2.1044 0.211059 0)
(2.1072 0.180987 0)
(2.10957 0.150879 0)
(2.11151 0.12074 0)
(2.11302 0.0905768 0)
(2.11409 0.0603948 0)
(2.11474 0.0302005 0)
(2.10052 0 0)
(2.08639 0 0)
(2.07268 0 0)
(2.05925 0 0)
(2.04616 0 0)
(2.03337 0 0)
(2.02089 0 0)
(2.0087 0 0)
(1.99681 0 0)
(1.9852 0 0)
(1.97387 0 0)
(1.96281 0 0)
(1.95202 0 0)
(1.94148 0 0)
(1.9312 0 0)
(1.92117 0 0)
(1.91138 0 0)
(1.90183 0 0)
(1.89251 0 0)
(1.88342 0 0)
(1.87455 0 0)
(1.86589 0 0)
(1.85745 0 0)
(1.84922 0 0)
(1.84119 0 0)
(1.83336 0 0)
(1.82573 0 0)
(1.81828 0 0)
(1.81103 0 0)
(1.80395 0 0)
(1.79706 0 0)
(1.79034 0 0)
(1.78379 0 0)
(1.77741 0 0)
(1.77119 0 0)
(1.76513 0 0)
(1.75924 0 0)
(1.75349 0 0)
(1.7479 0 0)
(1.74246 0 0)
(1.73716 0 0)
(1.732 0 0)
(1.72698 0 0)
(1.7221 0 0)
(1.71735 0 0)
(1.71274 0 0)
(1.70825 0 0)
(1.70389 0 0)
(1.69965 0 0)
(1.69553 0 0)
(1.69153 0 0)
(1.68765 0 0)
(1.68388 0 0)
(1.68023 0 0)
(1.67668 0 0)
(1.67325 0 0)
(1.66991 0 0)
(1.66669 0 0)
(1.66356 0 0)
(1.66053 0 0)
(1.65761 0 0)
(1.65478 0 0)
(1.65204 0 0)
(1.64939 0 0)
(1.64684 0 0)
(1.64438 0 0)
(1.642 0 0)
(1.63971 0 0)
(1.63751 0 0)
(1.63539 0 0)
(1.63335 0 0)
(1.63139 0 0)
(1.62951 0 0)
(1.62771 0 0)
(1.62598 0 0)
(1.62433 0 0)
(1.62275 0 0)
(1.62124 0 0)
(1.61981 0 0)
(1.61844 0 0)
(1.61715 0 0)
(1.61592 0 0)
(1.61476 0 0)
(1.61366 0 0)
(1.61263 0 0)
(1.61166 0 0)
(1.61075 0 0)
(1.6099 0 0)
(1.60912 0 0)
(1.60839 0 0)
(1.60772 0 0)
(1.60711 0 0)
(1.60655 0 0)
(1.60605 0 0)
(1.60561 0 0)
(1.60522 0 0)
(1.60488 0 0)
(1.60459 0 0)
(1.60436 0 0)
(1.60417 0 0)
(1.60404 0 0)
(1.60395 0 0)
(1.60391 0 0)
(1.60392 0 0)
(1.60397 0 0)
(1.60408 0 0)
(1.60422 0 0)
(1.60441 0 0)
(1.60465 0 0)
(1.60493 0 0)
(1.60525 0 0)
(1.60561 0 0)
(1.60601 0 0)
(1.60646 0 0)
(1.60694 0 0)
(1.60747 0 0)
(1.60788 0.022962 0)
(1.60738 0.0459193 0)
(1.60656 0.0688672 0)
(1.60542 0.0918011 0)
(1.60394 0.114716 0)
(1.60214 0.137608 0)
(1.60001 0.160472 0)
(1.59756 0.183303 0)
(1.59478 0.206096 0)
(1.59167 0.228848 0)
(1.58824 0.251553 0)
(1.58449 0.274207 0)
(1.58041 0.296804 0)
(1.57601 0.319341 0)
(1.57129 0.341813 0)
(1.56625 0.364216 0)
(1.56089 0.386544 0)
(1.55521 0.408793 0)
(1.54921 0.430959 0)
(1.5429 0.453037 0)
(1.53628 0.475023 0)
(1.52934 0.496912 0)
(1.52209 0.518699 0)
(1.51452 0.540381 0)
(1.50665 0.561952 0)
(1.49847 0.583409 0)
(1.48999 0.604747 0)
(1.4812 0.625962 0)
(1.47211 0.647049 0)
(1.46272 0.668004 0)
(1.45304 0.688823 0)
(1.44305 0.709501 0)
(1.43277 0.730035 0)
(1.4222 0.75042 0)
(1.41134 0.770652 0)
(1.40019 0.790726 0)
(1.38876 0.81064 0)
(1.37704 0.830388 0)
(1.36505 0.849967 0)
(1.35277 0.869372 0)
(1.34022 0.8886 0)
(1.32739 0.907647 0)
(1.3143 0.926509 0)
(1.30093 0.945182 0)
(1.2873 0.963662 0)
(1.27341 0.981946 0)
(1.25926 1.00003 0)
(1.24485 1.01791 0)
(1.23019 1.03558 0)
(1.21528 1.05304 0)
(1.20011 1.07029 0)
(1.18471 1.08732 0)
(1.16906 1.10412 0)
(1.15318 1.1207 0)
(1.13706 1.13706 0)
(1.1207 1.15318 0)
(1.10412 1.16906 0)
(1.08732 1.18471 0)
(1.07029 1.20011 0)
(1.05304 1.21528 0)
(1.03558 1.23019 0)
(1.01791 1.24485 0)
(1.00003 1.25926 0)
(0.981946 1.27341 0)
(0.963662 1.2873 0)
(0.945182 1.30093 0)
(0.926509 1.3143 0)
(0.907647 1.32739 0)
(0.8886 1.34022 0)
(0.869372 1.35277 0)
(0.849967 1.36505 0)
(0.830388 1.37704 0)
(0.81064 1.38876 0)
(0.790726 1.40019 0)
(0.770652 1.41134 0)
(0.75042 1.4222 0)
(0.730035 1.43277 0)
(0.709501 1.44305 0)
(0.688823 1.45304 0)
(0.668004 1.46272 0)
(0.647049 1.47211 0)
(0.625962 1.4812 0)
(0.604747 1.48999 0)
(0.583409 1.49847 0)
(0.561952 1.50665 0)
(0.540381 1.51452 0)
(0.518699 1.52209 0)
(0.496912 1.52934 0)
(0.475023 1.53628 0)
(0.453037 1.5429 0)
(0.430959 1.54921 0)
(0.408793 1.55521 0)
(0.386544 1.56089 0)
(0.364216 1.56625 0)
(0.341813 1.57129 0)
(0.319341 1.57601 0)
(0.296804 1.58041 0)
(0.274207 1.58449 0)
(0.251553 1.58824 0)
(0.228848 1.59167 0)
(0.206096 1.59478 0)
(0.183303 1.59756 0)
(0.160472 1.60001 0)
(0.137608 1.60214 0)
(0.114716 1.60394 0)
(0.0918011 1.60542 0)
(0.0688672 1.60656 0)
(0.0459193 1.60738 0)
(0.022962 1.60788 0)
(0 1.60747 0)
(0 1.60694 0)
(0 1.60646 0)
(0 1.60601 0)
(0 1.60561 0)
(0 1.60525 0)
(0 1.60493 0)
(0 1.60465 0)
(0 1.60441 0)
(0 1.60422 0)
(0 1.60408 0)
(0 1.60397 0)
(0 1.60392 0)
(0 1.60391 0)
(0 1.60395 0)
(0 1.60404 0)
(0 1.60417 0)
(0 1.60436 0)
(0 1.60459 0)
(0 1.60488 0)
(0 1.60522 0)
(0 1.60561 0)
(0 1.60605 0)
(0 1.60655 0)
(0 1.60711 0)
(0 1.60772 0)
(0 1.60839 0)
(0 1.60912 0)
(0 1.6099 0)
(0 1.61075 0)
(0 1.61166 0)
(0 1.61263 0)
(0 1.61366 0)
(0 1.61476 0)
(0 1.61592 0)
(0 1.61715 0)
(0 1.61844 0)
(0 1.61981 0)
(0 1.62124 0)
(0 1.62275 0)
(0 1.62433 0)
(0 1.62598 0)
(0 1.62771 0)
(0 1.62951 0)
(0 1.63139 0)
(0 1.63335 0)
(0 1.63539 0)
(0 1.63751 0)
(0 1.63971 0)
(0 1.642 0)
(0 1.64438 0)
(0 1.64684 0)
(0 1.64939 0)
(0 1.65204 0)
(0 1.65478 0)
(0 1.65761 0)
(0 1.66053 0)
(0 1.66356 0)
(0 1.66669 0)
(0 1.66991 0)
(0 1.67325 0)
(0 1.67668 0)
(0 1.68023 0)
(0 1.68388 0)
(0 1.68765 0)
(0 1.69153 0)
(0 1.69553 0)
(0 1.69965 0)
(0 1.70389 0)
(0 1.70825 0)
(0 1.71274 0)
(0 1.71735 0)
(0 1.7221 0)
(0 1.72698 0)
(0 1.732 0)
(0 1.73716 0)
(0 1.74246 0)
(0 1.7479 0)
(0 1.75349 0)
(0 1.75924 0)
(0 1.76513 0)
(0 1.77119 0)
(0 1.77741 0)
(0 1.78379 0)
(0 1.79034 0)
(0 1.79706 0)
(0 1.80395 0)
(0 1.81103 0)
(0 1.81828 0)
(0 1.82573 0)
(0 1.83336 0)
(0 1.84119 0)
(0 1.84922 0)
(0 1.85745 0)
(0 1.86589 0)
(0 1.87455 0)
(0 1.88342 0)
(0 1.89251 0)
(0 1.90183 0)
(0 1.91138 0)
(0 1.92117 0)
(0 1.9312 0)
(0 1.94148 0)
(0 1.95202 0)
(0 1.96281 0)
(0 1.97387 0)
(0 1.9852 0)
(0 1.99681 0)
(0 2.0087 0)
(0 2.02089 0)
(0 2.03337 0)
(0 2.04616 0)
(0 2.05925 0)
(0 2.07268 0)
(0 2.08639 0)
(0 2.10052 0)
(0.0302005 2.11474 0)
(0.0603948 2.11409 0)
(0.0905768 2.11302 0)
(0.12074 2.11151 0)
(0.150879 2.10957 0)
(0.180987 2.1072 0)
(0.211059 2.1044 0)
(0.241087 2.10117 0)
(0.271066 2.09751 0)
(0.30099 2.09343 0)
(0.330852 2.08892 0)
(0.360647 2.08398 0)
(0.390368 2.07862 0)
(0.42001 2.07283 0)
(0.449566 2.06662 0)
(0.479031 2.05999 0)
(0.508397 2.05294 0)
(0.537661 2.04547 0)
(0.566814 2.03759 0)
(0.595852 2.02929 0)
(0.624768 2.02057 0)
(0.653557 2.01144 0)
(0.682213 2.00191 0)
(0.71073 1.99196 0)
(0.739101 1.98161 0)
(0.767322 1.97085 0)
(0.795387 1.95969 0)
(0.823289 1.94814 0)
(0.851024 1.93618 0)
(0.878585 1.92383 0)
(0.905966 1.91109 0)
(0.933163 1.89796 0)
(0.96017 1.88444 0)
(0.986981 1.87054 0)
(1.01359 1.85625 0)
(1.03999 1.84159 0)
(1.06618 1.82655 0)
(1.09216 1.81114 0)
(1.11791 1.79536 0)
(1.14343 1.77921 0)
(1.16872 1.76271 0)
(1.19377 1.74584 0)
(1.21858 1.72861 0)
(1.24314 1.71104 0)
(1.26745 1.69311 0)
(1.29149 1.67484 0)
(1.31528 1.65623 0)
(1.33879 1.63728 0)
(1.36204 1.61799 0)
(1.385 1.59838 0)
(1.40768 1.57844 0)
(1.43008 1.55818 0)
(1.45218 1.5376 0)
(1.47399 1.5167 0)
(1.4955 1.4955 0)
(1.5167 1.47399 0)
(1.5376 1.45218 0)
(1.55818 1.43008 0)
(1.57844 1.40768 0)
(1.59838 1.385 0)
(1.61799 1.36204 0)
(1.63728 1.33879 0)
(1.65623 1.31528 0)
(1.67484 1.29149 0)
(1.69311 1.26745 0)
(1.71104 1.24314 0)
(1.72861 1.21858 0)
(1.74584 1.19377 0)
(1.76271 1.16872 0)
(1.77921 1.14343 0)
(1.79536 1.11791 0)
(1.81114 1.09216 0)
(1.82655 1.06618 0)
(1.84159 1.03999 0)
(1.85625 1.01359 0)
(1.87054 0.986981 0)
(1.88444 0.96017 0)
(1.89796 0.933163 0)
(1.91109 0.905966 0)
(1.92383 0.878584 0)
(1.93618 0.851024 0)
(1.94814 0.823289 0)
(1.95969 0.795387 0)
(1.97085 0.767322 0)
(1.98161 0.739101 0)
(1.99196 0.71073 0)
(2.00191 0.682213 0)
(2.01144 0.653557 0)
(2.02057 0.624768 0)
(2.02929 0.595852 0)
(2.03759 0.566814 0)
(2.04547 0.537661 0)
(2.05294 0.508397 0)
(2.05999 0.479031 0)
(2.06662 0.449566 0)
(2.07283 0.42001 0)
(2.07862 0.390368 0)
(2.08398 0.360647 0)
(2.08892 0.330852 0)
(2.09343 0.30099 0)
(2.09751 0.271066 0)
(2.10117 0.241087 0)
(2.1044 0.211059 0)
(2.1072 0.180987 0)
(2.10957 0.150879 0)
(2.11151 0.12074 0)
(2.11302 0.0905768 0)
(2.11409 0.0603948 0)
(2.11474 0.0302005 0)
(2.10031 0.0299944 0)
(2.09967 0.0599826 0)
(2.0986 0.0899586 0)
(2.0971 0.119916 0)
(2.09517 0.14985 0)
(2.09282 0.179752 0)
(2.09004 0.209618 0)
(2.08683 0.239442 0)
(2.0832 0.269216 0)
(2.07914 0.298936 0)
(2.07466 0.328594 0)
(2.06976 0.358186 0)
(2.06443 0.387704 0)
(2.05869 0.417144 0)
(2.05252 0.446498 0)
(2.04593 0.475762 0)
(2.03893 0.504928 0)
(2.03151 0.533991 0)
(2.02368 0.562946 0)
(2.01544 0.591786 0)
(2.00678 0.620505 0)
(1.99772 0.649097 0)
(1.98824 0.677557 0)
(1.97837 0.705879 0)
(1.96808 0.734057 0)
(1.9574 0.762086 0)
(1.94632 0.789959 0)
(1.93484 0.817671 0)
(1.92297 0.845216 0)
(1.9107 0.872589 0)
(1.89805 0.899783 0)
(1.88501 0.926795 0)
(1.87158 0.953617 0)
(1.85777 0.980245 0)
(1.84358 1.00667 0)
(1.82902 1.0329 0)
(1.81409 1.05891 0)
(1.79878 1.0847 0)
(1.78311 1.11028 0)
(1.76707 1.13563 0)
(1.75068 1.16075 0)
(1.73392 1.18563 0)
(1.71682 1.21026 0)
(1.69936 1.23466 0)
(1.68155 1.2588 0)
(1.66341 1.28268 0)
(1.64492 1.3063 0)
(1.6261 1.32966 0)
(1.60695 1.35274 0)
(1.58747 1.37555 0)
(1.56766 1.39808 0)
(1.54754 1.42032 0)
(1.5271 1.44227 0)
(1.50635 1.46393 0)
(1.48529 1.48529 0)
(1.46393 1.50635 0)
(1.44227 1.5271 0)
(1.42032 1.54754 0)
(1.39808 1.56766 0)
(1.37555 1.58747 0)
(1.35274 1.60695 0)
(1.32966 1.6261 0)
(1.3063 1.64492 0)
(1.28268 1.66341 0)
(1.2588 1.68155 0)
(1.23466 1.69936 0)
(1.21026 1.71682 0)
(1.18563 1.73392 0)
(1.16075 1.75068 0)
(1.13563 1.76707 0)
(1.11028 1.78311 0)
(1.0847 1.79878 0)
(1.05891 1.81409 0)
(1.0329 1.82902 0)
(1.00667 1.84358 0)
(0.980245 1.85777 0)
(0.953617 1.87158 0)
(0.926795 1.88501 0)
(0.899783 1.89805 0)
(0.872589 1.9107 0)
(0.845216 1.92297 0)
(0.817671 1.93484 0)
(0.789959 1.94632 0)
(0.762086 1.9574 0)
(0.734057 1.96808 0)
(0.705879 1.97837 0)
(0.677557 1.98824 0)
(0.649097 1.99772 0)
(0.620505 2.00678 0)
(0.591786 2.01544 0)
(0.562946 2.02368 0)
(0.533991 2.03151 0)
(0.504928 2.03893 0)
(0.475762 2.04593 0)
(0.446498 2.05252 0)
(0.417144 2.05869 0)
(0.387704 2.06443 0)
(0.358186 2.06976 0)
(0.328594 2.07466 0)
(0.298936 2.07914 0)
(0.269216 2.0832 0)
(0.239442 2.08683 0)
(0.209618 2.09004 0)
(0.179752 2.09282 0)
(0.14985 2.09517 0)
(0.119916 2.0971 0)
(0.0899586 2.0986 0)
(0.0599826 2.09967 0)
(0.0299944 2.10031 0)
(2.08618 0.0297926 0)
(2.08554 0.0595791 0)
(2.08448 0.0893534 0)
(2.08299 0.11911 0)
(2.08107 0.148841 0)
(2.07874 0.178543 0)
(2.07598 0.208208 0)
(2.07279 0.237831 0)
(2.06918 0.267405 0)
(2.06515 0.296924 0)
(2.0607 0.326383 0)
(2.05583 0.355776 0)
(2.05054 0.385096 0)
(2.04483 0.414337 0)
(2.03871 0.443494 0)
(2.03217 0.472561 0)
(2.02521 0.501531 0)
(2.01785 0.530399 0)
(2.01007 0.559158 0)
(2.00188 0.587804 0)
(1.99328 0.61633 0)
(1.98428 0.64473 0)
(1.97487 0.672999 0)
(1.96506 0.70113 0)
(1.95484 0.729119 0)
(1.94423 0.756959 0)
(1.93323 0.784644 0)
(1.92182 0.812169 0)
(1.91003 0.839529 0)
(1.89785 0.866718 0)
(1.88528 0.89373 0)
(1.87232 0.920559 0)
(1.85899 0.947201 0)
(1.84527 0.97365 0)
(1.83118 0.999901 0)
(1.81672 1.02595 0)
(1.80188 1.05178 0)
(1.78668 1.07741 0)
(1.77111 1.10281 0)
(1.75518 1.12799 0)
(1.7389 1.15294 0)
(1.72226 1.17765 0)
(1.70526 1.20212 0)
(1.68793 1.22635 0)
(1.67024 1.25033 0)
(1.65222 1.27405 0)
(1.63386 1.29751 0)
(1.61516 1.32071 0)
(1.59614 1.34364 0)
(1.57679 1.3663 0)
(1.55712 1.38867 0)
(1.53713 1.41076 0)
(1.51683 1.43257 0)
(1.49622 1.45408 0)
(1.4753 1.4753 0)
(1.45408 1.49622 0)
(1.43257 1.51683 0)
(1.41076 1.53713 0)
(1.38867 1.55712 0)
(1.3663 1.57679 0)
(1.34364 1.59614 0)
(1.32071 1.61516 0)
(1.29751 1.63386 0)
(1.27405 1.65222 0)
(1.25033 1.67024 0)
(1.22635 1.68793 0)
(1.20212 1.70526 0)
(1.17765 1.72226 0)
(1.15294 1.7389 0)
(1.12799 1.75518 0)
(1.10281 1.77111 0)
(1.07741 1.78668 0)
(1.05178 1.80188 0)
(1.02595 1.81672 0)
(0.999901 1.83118 0)
(0.97365 1.84527 0)
(0.947201 1.85899 0)
(0.920559 1.87232 0)
(0.89373 1.88528 0)
(0.866718 1.89785 0)
(0.839529 1.91003 0)
(0.812169 1.92182 0)
(0.784644 1.93323 0)
(0.756959 1.94423 0)
(0.729119 1.95484 0)
(0.70113 1.96506 0)
(0.672999 1.97487 0)
(0.64473 1.98428 0)
(0.61633 1.99328 0)
(0.587804 2.00188 0)
(0.559158 2.01007 0)
(0.530399 2.01785 0)
(0.501531 2.02521 0)
(0.472561 2.03217 0)
(0.443494 2.03871 0)
(0.414337 2.04483 0)
(0.385096 2.05054 0)
(0.355776 2.05583 0)
(0.326383 2.0607 0)
(0.296924 2.06515 0)
(0.267405 2.06918 0)
(0.237831 2.07279 0)
(0.208208 2.07598 0)
(0.178543 2.07874 0)
(0.148841 2.08107 0)
(0.11911 2.08299 0)
(0.0893534 2.08448 0)
(0.0595791 2.08554 0)
(0.0297926 2.08618 0)
(2.07247 0.0295968 0)
(2.07184 0.0591876 0)
(2.07078 0.0887663 0)
(2.0693 0.118327 0)
(2.0674 0.147863 0)
(2.06508 0.17737 0)
(2.06233 0.20684 0)
(2.05917 0.236268 0)
(2.05559 0.265648 0)
(2.05158 0.294973 0)
(2.04716 0.324239 0)
(2.04232 0.353438 0)
(2.03707 0.382565 0)
(2.0314 0.411615 0)
(2.02531 0.44058 0)
(2.01882 0.469456 0)
(2.01191 0.498235 0)
(2.00459 0.526913 0)
(1.99686 0.555484 0)
(1.98872 0.583942 0)
(1.98018 0.61228 0)
(1.97124 0.640494 0)
(1.96189 0.668577 0)
(1.95214 0.696523 0)
(1.942 0.724328 0)
(1.93146 0.751985 0)
(1.92052 0.779488 0)
(1.9092 0.806833 0)
(1.89748 0.834013 0)
(1.88538 0.861023 0)
(1.87289 0.887857 0)
(1.86002 0.914511 0)
(1.84677 0.940977 0)
(1.83315 0.967252 0)
(1.81915 0.99333 0)
(1.80478 1.01921 0)
(1.79004 1.04487 0)
(1.77494 1.07033 0)
(1.75947 1.09556 0)
(1.74365 1.12058 0)
(1.72747 1.14536 0)
(1.71094 1.16991 0)
(1.69406 1.19422 0)
(1.67683 1.21829 0)
(1.65927 1.24211 0)
(1.64136 1.26568 0)
(1.62312 1.28899 0)
(1.60455 1.31203 0)
(1.58565 1.33481 0)
(1.56643 1.35732 0)
(1.54689 1.37955 0)
(1.52703 1.40149 0)
(1.50686 1.42316 0)
(1.48639 1.44453 0)
(1.46561 1.46561 0)
(1.44453 1.48639 0)
(1.42316 1.50686 0)
(1.40149 1.52703 0)
(1.37955 1.54689 0)
(1.35732 1.56643 0)
(1.33481 1.58565 0)
(1.31203 1.60455 0)
(1.28899 1.62312 0)
(1.26568 1.64136 0)
(1.24211 1.65927 0)
(1.21829 1.67683 0)
(1.19422 1.69406 0)
(1.16991 1.71094 0)
(1.14536 1.72747 0)
(1.12058 1.74365 0)
(1.09556 1.75947 0)
(1.07033 1.77494 0)
(1.04487 1.79004 0)
(1.01921 1.80478 0)
(0.99333 1.81915 0)
(0.967252 1.83315 0)
(0.940977 1.84677 0)
(0.914511 1.86002 0)
(0.887857 1.87289 0)
(0.861023 1.88538 0)
(0.834013 1.89748 0)
(0.806833 1.9092 0)
(0.779488 1.92052 0)
(0.751985 1.93146 0)
(0.724328 1.942 0)
(0.696523 1.95214 0)
(0.668577 1.96189 0)
(0.640494 1.97124 0)
(0.61228 1.98018 0)
(0.583942 1.98872 0)
(0.555484 1.99686 0)
(0.526913 2.00459 0)
(0.498235 2.01191 0)
(0.469456 2.01882 0)
(0.44058 2.02531 0)
(0.411615 2.0314 0)
(0.382565 2.03707 0)
(0.353438 2.04232 0)
(0.324239 2.04716 0)
(0.294973 2.05158 0)
(0.265648 2.05559 0)
(0.236268 2.05917 0)
(0.20684 2.06233 0)
(0.17737 2.06508 0)
(0.147863 2.0674 0)
(0.118327 2.0693 0)
(0.0887663 2.07078 0)
(0.0591876 2.07184 0)
(0.0295968 2.07247 0)
(2.05904 0.029405 0)
(2.05841 0.058804 0)
(2.05736 0.088191 0)
(2.05589 0.11756 0)
(2.054 0.146905 0)
(2.05169 0.17622 0)
(2.04897 0.205499 0)
(2.04582 0.234736 0)
(2.04226 0.263926 0)
(2.03829 0.293061 0)
(2.03389 0.322137 0)
(2.02909 0.351147 0)
(2.02387 0.380086 0)
(2.01823 0.408947 0)
(2.01219 0.437724 0)
(2.00573 0.466413 0)
(1.99887 0.495006 0)
(1.99159 0.523498 0)
(1.98392 0.551884 0)
(1.97583 0.580157 0)
(1.96735 0.608312 0)
(1.95846 0.636342 0)
(1.94917 0.664243 0)
(1.93949 0.692009 0)
(1.92941 0.719633 0)
(1.91894 0.747111 0)
(1.90807 0.774436 0)
(1.89682 0.801603 0)
(1.88518 0.828607 0)
(1.87316 0.855442 0)
(1.86075 0.882103 0)
(1.84797 0.908583 0)
(1.8348 0.934879 0)
(1.82127 0.960983 0)
(1.80736 0.986892 0)
(1.79308 1.0126 0)
(1.77844 1.0381 0)
(1.76343 1.06339 0)
(1.74807 1.08846 0)
(1.73235 1.11331 0)
(1.71627 1.13794 0)
(1.69985 1.16233 0)
(1.68308 1.18648 0)
(1.66597 1.2104 0)
(1.64851 1.23406 0)
(1.63072 1.25747 0)
(1.6126 1.28063 0)
(1.59415 1.30353 0)
(1.57537 1.32616 0)
(1.55628 1.34852 0)
(1.53686 1.37061 0)
(1.51713 1.39241 0)
(1.49709 1.41393 0)
(1.47675 1.43517 0)
(1.45611 1.45611 0)
(1.43517 1.47675 0)
(1.41393 1.49709 0)
(1.39241 1.51713 0)
(1.37061 1.53686 0)
(1.34852 1.55628 0)
(1.32616 1.57537 0)
(1.30353 1.59415 0)
(1.28063 1.6126 0)
(1.25747 1.63072 0)
(1.23406 1.64851 0)
(1.2104 1.66597 0)
(1.18648 1.68308 0)
(1.16233 1.69985 0)
(1.13794 1.71627 0)
(1.11331 1.73235 0)
(1.08846 1.74807 0)
(1.06339 1.76343 0)
(1.0381 1.77844 0)
(1.0126 1.79308 0)
(0.986892 1.80736 0)
(0.960983 1.82127 0)
(0.934879 1.8348 0)
(0.908583 1.84797 0)
(0.882103 1.86075 0)
(0.855442 1.87316 0)
(0.828607 1.88518 0)
(0.801603 1.89682 0)
(0.774436 1.90807 0)
(0.747111 1.91894 0)
(0.719633 1.92941 0)
(0.692009 1.93949 0)
(0.664243 1.94917 0)
(0.636342 1.95846 0)
(0.608312 1.96735 0)
(0.580157 1.97583 0)
(0.551884 1.98392 0)
(0.523498 1.99159 0)
(0.495006 1.99887 0)
(0.466413 2.00573 0)
(0.437724 2.01219 0)
(0.408947 2.01823 0)
(0.380086 2.02387 0)
(0.351147 2.02909 0)
(0.322137 2.03389 0)
(0.293061 2.03829 0)
(0.263926 2.04226 0)
(0.234736 2.04582 0)
(0.205499 2.04897 0)
(0.17622 2.05169 0)
(0.146905 2.054 0)
(0.11756 2.05589 0)
(0.088191 2.05736 0)
(0.058804 2.05841 0)
(0.029405 2.05904 0)
(2.04595 0.0292181 0)
(2.04533 0.0584302 0)
(2.04428 0.0876305 0)
(2.04282 0.116813 0)
(2.04095 0.145971 0)
(2.03865 0.1751 0)
(2.03595 0.204193 0)
(2.03282 0.233245 0)
(2.02928 0.262249 0)
(2.02533 0.291199 0)
(2.02097 0.32009 0)
(2.01619 0.348916 0)
(2.011 0.37767 0)
(2.00541 0.406348 0)
(1.9994 0.434943 0)
(1.99298 0.463449 0)
(1.98616 0.49186 0)
(1.97894 0.520171 0)
(1.97131 0.548376 0)
(1.96328 0.57647 0)
(1.95484 0.604446 0)
(1.94601 0.632298 0)
(1.93679 0.660022 0)
(1.92716 0.687611 0)
(1.91715 0.71506 0)
(1.90674 0.742363 0)
(1.89595 0.769514 0)
(1.88477 0.796509 0)
(1.8732 0.823341 0)
(1.86125 0.850005 0)
(1.84892 0.876497 0)
(1.83622 0.902809 0)
(1.82314 0.928937 0)
(1.80969 0.954876 0)
(1.79587 0.98062 0)
(1.78169 1.00616 0)
(1.76714 1.0315 0)
(1.75223 1.05663 0)
(1.73696 1.08154 0)
(1.72134 1.10624 0)
(1.70537 1.1307 0)
(1.68905 1.15494 0)
(1.67238 1.17894 0)
(1.65538 1.2027 0)
(1.63804 1.22622 0)
(1.62036 1.24948 0)
(1.60235 1.27249 0)
(1.58402 1.29524 0)
(1.56536 1.31773 0)
(1.54638 1.33995 0)
(1.52709 1.36189 0)
(1.50749 1.38356 0)
(1.48758 1.40495 0)
(1.46737 1.42605 0)
(1.44685 1.44685 0)
(1.42605 1.46737 0)
(1.40495 1.48758 0)
(1.38356 1.50749 0)
(1.36189 1.52709 0)
(1.33995 1.54638 0)
(1.31773 1.56536 0)
(1.29524 1.58402 0)
(1.27249 1.60235 0)
(1.24948 1.62036 0)
(1.22622 1.63804 0)
(1.2027 1.65538 0)
(1.17894 1.67238 0)
(1.15494 1.68905 0)
(1.1307 1.70537 0)
(1.10624 1.72134 0)
(1.08154 1.73696 0)
(1.05663 1.75223 0)
(1.0315 1.76714 0)
(1.00616 1.78169 0)
(0.98062 1.79587 0)
(0.954876 1.80969 0)
(0.928937 1.82314 0)
(0.902809 1.83622 0)
(0.876497 1.84892 0)
(0.850005 1.86125 0)
(0.823341 1.8732 0)
(0.796509 1.88477 0)
(0.769514 1.89595 0)
(0.742363 1.90674 0)
(0.71506 1.91715 0)
(0.687611 1.92716 0)
(0.660022 1.93679 0)
(0.632298 1.94601 0)
(0.604446 1.95484 0)
(0.57647 1.96328 0)
(0.548376 1.97131 0)
(0.520171 1.97894 0)
(0.49186 1.98616 0)
(0.463449 1.99298 0)
(0.434943 1.9994 0)
(0.406348 2.00541 0)
(0.37767 2.011 0)
(0.348916 2.01619 0)
(0.32009 2.02097 0)
(0.291199 2.02533 0)
(0.262249 2.02928 0)
(0.233245 2.03282 0)
(0.204193 2.03595 0)
(0.1751 2.03865 0)
(0.145971 2.04095 0)
(0.116813 2.04282 0)
(0.0876305 2.04428 0)
(0.0584302 2.04533 0)
(0.0292181 2.04595 0)
(2.03316 0.0290354 0)
(2.03254 0.058065 0)
(2.0315 0.0870826 0)
(2.03005 0.116083 0)
(2.02819 0.145059 0)
(2.02591 0.174005 0)
(2.02322 0.202917 0)
(2.02011 0.231786 0)
(2.0166 0.260609 0)
(2.01267 0.289378 0)
(2.00833 0.318089 0)
(2.00359 0.346734 0)
(1.99843 0.375309 0)
(1.99287 0.403808 0)
(1.9869 0.432223 0)
(1.98052 0.460551 0)
(1.97375 0.488785 0)
(1.96657 0.516919 0)
(1.95898 0.544948 0)
(1.951 0.572866 0)
(1.94262 0.600667 0)
(1.93385 0.628345 0)
(1.92468 0.655896 0)
(1.91512 0.683312 0)
(1.90516 0.710589 0)
(1.89482 0.737722 0)
(1.8841 0.764703 0)
(1.87298 0.791529 0)
(1.86149 0.818194 0)
(1.84962 0.844692 0)
(1.83737 0.871017 0)
(1.82474 0.897165 0)
(1.81174 0.92313 0)
(1.79838 0.948906 0)
(1.78464 0.97449 0)
(1.77055 0.999874 0)
(1.75609 1.02505 0)
(1.74127 1.05003 0)
(1.7261 1.07478 0)
(1.71058 1.09932 0)
(1.69471 1.12364 0)
(1.67849 1.14772 0)
(1.66193 1.17157 0)
(1.64503 1.19518 0)
(1.62779 1.21855 0)
(1.61023 1.24167 0)
(1.59233 1.26454 0)
(1.57411 1.28715 0)
(1.55557 1.30949 0)
(1.53672 1.33157 0)
(1.51755 1.35338 0)
(1.49807 1.37491 0)
(1.47828 1.39616 0)
(1.45819 1.41713 0)
(1.43781 1.43781 0)
(1.41713 1.45819 0)
(1.39616 1.47828 0)
(1.37491 1.49807 0)
(1.35338 1.51755 0)
(1.33157 1.53672 0)
(1.30949 1.55557 0)
(1.28715 1.57411 0)
(1.26454 1.59233 0)
(1.24167 1.61023 0)
(1.21855 1.62779 0)
(1.19518 1.64503 0)
(1.17157 1.66193 0)
(1.14772 1.67849 0)
(1.12364 1.69471 0)
(1.09932 1.71058 0)
(1.07478 1.7261 0)
(1.05003 1.74127 0)
(1.02505 1.75609 0)
(0.999874 1.77055 0)
(0.97449 1.78464 0)
(0.948906 1.79838 0)
(0.92313 1.81174 0)
(0.897165 1.82474 0)
(0.871017 1.83737 0)
(0.844692 1.84962 0)
(0.818194 1.86149 0)
(0.791529 1.87298 0)
(0.764703 1.8841 0)
(0.737722 1.89482 0)
(0.710589 1.90516 0)
(0.683312 1.91512 0)
(0.655896 1.92468 0)
(0.628345 1.93385 0)
(0.600667 1.94262 0)
(0.572866 1.951 0)
(0.544948 1.95898 0)
(0.516919 1.96657 0)
(0.488785 1.97375 0)
(0.460551 1.98052 0)
(0.432223 1.9869 0)
(0.403808 1.99287 0)
(0.375309 1.99843 0)
(0.346734 2.00359 0)
(0.318089 2.00833 0)
(0.289378 2.01267 0)
(0.260609 2.0166 0)
(0.231786 2.02011 0)
(0.202917 2.02322 0)
(0.174005 2.02591 0)
(0.145059 2.02819 0)
(0.116083 2.03005 0)
(0.0870826 2.0315 0)
(0.058065 2.03254 0)
(0.0290354 2.03316 0)
(2.02068 0.0288573 0)
(2.02007 0.0577086 0)
(2.01904 0.0865482 0)
(2.01759 0.11537 0)
(2.01574 0.144169 0)
(2.01348 0.172938 0)
(2.0108 0.201671 0)