/*--------------------------------*- C++ -*----------------------------------*\
| =========                 |                                                 |
| \\      /  F ield         | OpenFOAM: The Open Source CFD Toolbox           |
|  \\    /   O peration     | Version:  2312                                  |
|   \\  /    A nd           | Website:  www.openfoam.com                      |
|    \\/     M anipulation  |                                                 |
\*---------------------------------------------------------------------------*/
FoamFile
{
    version     2.0;
    format      ascii;
    arch        "LSB;label=32;scalar=64";
    class       volSymmTensorField;
    location    "60";
    object      sigma:Transformed;
}
// * * * * * * * * * * * * * * * * * * * * * * * * * * * * * * * * * * * * * //

dimensions      [1 -1 -2 0 0 0 0];

internalField   nonuniform List<symmTensor> 
12870
(
(-5.88802e+07 -0.053307 -1.0577e-11 9.92753e+07 -2.57355e-09 -8.71394e+06)
(-5.88802e+07 0.106432 -1.50144e-09 9.92753e+07 1.28677e-09 -8.71394e+06)
(-5.88802e+07 -0.0651991 2.27068e-09 9.92753e+07 2.57355e-09 -8.71394e+06)
(-5.88802e+07 0.12006 5.28851e-12 9.92753e+07 -1.28677e-09 -8.71394e+06)
(-5.88802e+07 -0.265623 -7.58655e-10 9.92753e+07 1.28677e-09 -8.71394e+06)
(-5.88802e+07 0.119903 2.28125e-09 9.92753e+07 -3.83291e-18 -8.71394e+06)
(-5.88802e+07 -0.0523911 -7.58655e-10 9.92753e+07 -1.28677e-09 -8.71394e+06)
(-5.88802e+07 0.18062 1.53318e-09 9.92753e+07 1.28677e-09 -8.71394e+06)
(-5.88802e+07 0.0459257 -5.15085e-18 9.92753e+07 2.57355e-09 -8.71394e+06)
(-5.88802e+07 0.0269913 1.5226e-09 9.92753e+07 1.28677e-09 -8.71394e+06)
(-5.88802e+07 -0.0714848 1.5226e-09 9.92753e+07 -1.28677e-09 -8.71394e+06)
(-5.88802e+07 0.110383 7.53367e-10 9.92753e+07 -5.1471e-09 -8.71394e+06)
(-5.88802e+07 -0.312117 -3.02404e-09 9.92753e+07 1.50961e-17 -8.71394e+06)
(-5.88802e+07 0.277864 -7.95675e-10 9.92753e+07 3.13518e-17 -8.71394e+06)
(-5.88802e+07 -0.193214 -1.50144e-09 9.92753e+07 -1.28677e-09 -8.71394e+06)
(-5.88802e+07 0.0706009 -1.53318e-09 9.92753e+07 3.86032e-09 -8.71394e+06)
(-5.88802e+07 -0.146132 -5.28851e-12 9.92753e+07 1.28677e-09 -8.71394e+06)
(-5.88802e+07 -0.0452934 7.63944e-10 9.92753e+07 1.23841e-18 -8.71394e+06)
(-5.88802e+07 0.0096208 7.58655e-10 9.92753e+07 -1.28677e-09 -8.71394e+06)
(-5.88802e+07 0.0117445 5.28851e-12 9.92753e+07 -1.28677e-09 -8.71394e+06)
(-5.88802e+07 0.126247 0 9.92753e+07 0 -8.71394e+06)
(-5.88802e+07 -0.184362 -7.58655e-10 9.92753e+07 1.28677e-09 -8.71394e+06)
(-5.88802e+07 0.238672 -3.70347e-18 9.92753e+07 2.57355e-09 -8.71394e+06)
(-5.88802e+07 -0.26561 7.48078e-10 9.92753e+07 -1.28677e-09 -8.71394e+06)
(-5.88802e+07 0.180973 -7.53367e-10 9.92753e+07 -2.57355e-09 -8.71394e+06)
(-5.88802e+07 -0.263578 1.53846e-09 9.92753e+07 2.57355e-09 -8.71394e+06)
(-5.88802e+07 0.0477235 1.49616e-09 9.92753e+07 -2.57355e-09 -8.71394e+06)
(-5.88802e+07 -0.0615984 -1.49616e-09 9.92753e+07 -2.57355e-09 -8.71394e+06)
(-5.88802e+07 0.119073 -7.85098e-10 9.92753e+07 3.49864e-17 -8.71394e+06)
(-5.88802e+07 -0.179593 -2.2601e-09 9.92753e+07 2.57355e-09 -8.71394e+06)
(-5.88802e+07 0.308581 1.50673e-09 9.92753e+07 5.1471e-09 -8.71394e+06)
(-5.88802e+07 -0.183685 -1.0577e-11 9.92753e+07 -2.57355e-09 -8.71394e+06)
(-5.88802e+07 0.110366 -7.48078e-10 9.92753e+07 -1.28677e-09 -8.71394e+06)
(-5.88802e+07 -0.0779295 -7.69232e-10 9.92753e+07 1.28677e-09 -8.71394e+06)
(-5.88802e+07 0.0540969 7.58655e-10 9.92753e+07 -1.28677e-09 -8.71394e+06)
(-5.88802e+07 -0.117509 -7.58655e-10 9.92753e+07 -1.28677e-09 -8.71394e+06)
(-5.88802e+07 0.0339481 -1.0577e-11 9.92753e+07 -2.57355e-09 -8.71394e+06)
(-5.88802e+07 -0.0869101 -1.51731e-09 9.92753e+07 -2.57355e-09 -8.71394e+06)
(-5.88802e+07 0.0104335 -3.0452e-09 9.92753e+07 2.57355e-09 -8.71394e+06)
(-5.88802e+07 0.118474 -1.52789e-09 9.92753e+07 5.1471e-09 -8.71394e+06)
(-5.88802e+07 -0.18409 1.50673e-09 9.92753e+07 -1.22676e-17 -8.71394e+06)
(-5.88802e+07 0.0198798 2.1154e-11 9.92753e+07 -4.91573e-18 -8.71394e+06)
(-5.88802e+07 0.155206 1.51731e-09 9.92753e+07 2.57355e-09 -8.71394e+06)
(-5.88802e+07 -0.0380434 -1.0577e-11 9.92753e+07 -2.57355e-09 -8.71394e+06)
(-5.88802e+07 -0.0268222 -7.4279e-10 9.92753e+07 2.81777e-17 -8.71394e+06)
(-5.88802e+07 -0.0150795 1.51731e-09 9.92753e+07 2.57355e-09 -8.71394e+06)
(-5.88802e+07 0.192082 0 9.92753e+07 0 -8.71394e+06)
(-5.88802e+07 -0.167649 7.53367e-10 9.92753e+07 -2.57355e-09 -8.71394e+06)
(-5.88802e+07 0.0855536 -1.2262e-17 9.92753e+07 -5.1471e-09 -8.71394e+06)
(-5.88802e+07 -0.170555 -2.28125e-09 9.92753e+07 -2.57355e-09 -8.71394e+06)
(-5.88802e+07 0.15595 -2.29183e-09 9.92753e+07 4.57247e-17 -8.71394e+06)
(-5.88802e+07 -0.0408815 -2.27597e-09 9.92753e+07 3.86032e-09 -8.71394e+06)
(-5.88802e+07 0.0163172 7.4279e-10 9.92753e+07 2.57355e-09 -8.71394e+06)
(-5.88802e+07 0.138657 -1.51731e-09 9.92753e+07 1.51717e-17 -8.71394e+06)
(-5.88802e+07 -0.230602 -7.63944e-10 9.92753e+07 2.57355e-09 -8.71394e+06)
(-5.88802e+07 0.294773 3.03991e-09 9.92753e+07 -1.28677e-09 -8.71394e+06)
(-5.88802e+07 -0.0768439 2.11541e-11 9.92753e+07 -3.38028e-19 -8.71394e+06)
(-5.88802e+07 -0.0654747 -3.17311e-11 9.92753e+07 -2.57355e-09 -8.71394e+06)
(-5.88802e+07 -0.109267 -2.24952e-09 9.92753e+07 -2.62658e-17 -8.71394e+06)
(-5.88802e+07 0.180762 1.49616e-09 9.92753e+07 2.57355e-09 -8.71394e+06)
(-5.88802e+07 -0.087339 -7.37501e-10 9.92753e+07 1.28677e-09 -8.71394e+06)
(-5.88802e+07 0.124593 7.21636e-10 9.92753e+07 -2.57355e-09 -8.71394e+06)
(-5.88802e+07 -0.242727 -2.24423e-09 9.92753e+07 -1.28677e-09 -8.71394e+06)
(-5.88802e+07 0.00289377 1.50144e-09 9.92753e+07 3.86032e-09 -8.71394e+06)
(-5.88802e+07 -0.211963 7.74521e-10 9.92753e+07 5.1289e-18 -8.71394e+06)
(-5.88802e+07 0.287522 -1.0577e-11 9.92753e+07 7.59673e-18 -8.71394e+06)
(-5.88802e+07 -0.324125 7.69232e-10 9.92753e+07 -1.28677e-09 -8.71394e+06)
(-5.88802e+07 0.295661 -7.69232e-10 9.92753e+07 -1.28677e-09 -8.71394e+06)
(-5.88802e+07 -0.196511 -5.28851e-12 9.92753e+07 -3.86032e-09 -8.71394e+06)
(-5.88802e+07 0.266483 -3.02404e-09 9.92753e+07 2.57355e-09 -8.71394e+06)
(-5.88802e+07 -0.121381 7.32213e-10 9.92753e+07 2.57355e-09 -8.71394e+06)
(-5.88802e+07 -0.00887568 1.0577e-11 9.92753e+07 -2.57355e-09 -8.71394e+06)
(-5.88802e+07 -0.0405915 1.53846e-09 9.92753e+07 2.57355e-09 -8.71394e+06)
(-5.88802e+07 -0.0398423 -1.58655e-11 9.92753e+07 1.28677e-09 -8.71394e+06)
(-5.88802e+07 -0.00852814 -1.71027e-18 9.92753e+07 -2.57355e-09 -8.71394e+06)
(-5.88802e+07 -0.0989141 -7.58655e-10 9.92753e+07 -1.28677e-09 -8.71394e+06)
(-5.88802e+07 0.0314772 -7.63944e-10 9.92753e+07 5.72795e-18 -8.71394e+06)
(-5.88802e+07 0.151629 5.28851e-12 9.92753e+07 1.28677e-09 -8.71394e+06)
(-5.88802e+07 -0.0860184 2.28125e-09 9.92753e+07 -2.42708e-17 -8.71394e+06)
(-5.88802e+07 0.109553 1.0577e-11 9.92753e+07 -3.50649e-18 -8.71394e+06)
(-5.88802e+07 -0.106216 7.4279e-10 9.92753e+07 -2.57355e-09 -8.71394e+06)
(-5.88802e+07 0.0831167 -1.48558e-09 9.92753e+07 2.57355e-09 -8.71394e+06)
(-5.88802e+07 -0.119511 2.23895e-09 9.92753e+07 -2.67219e-17 -8.71394e+06)
(-5.88802e+07 0.0941868 -2.25481e-09 9.92753e+07 -3.86032e-09 -8.71394e+06)
(-5.88802e+07 0.00456813 -1.0577e-11 9.92753e+07 2.57355e-09 -8.71394e+06)
(-5.88802e+07 -0.0833325 5.28852e-12 9.92753e+07 1.28677e-09 -8.71394e+06)
(-5.88802e+07 0.0241956 7.63944e-10 9.92753e+07 2.57355e-09 -8.71394e+06)
(-5.88802e+07 -0.0477958 7.37501e-10 9.92753e+07 -3.86032e-09 -8.71394e+06)
(-5.88802e+07 0.060867 4.23081e-11 9.92753e+07 -2.99864e-17 -8.71394e+06)
(-5.88802e+07 0.104358 7.32213e-10 9.92753e+07 2.57355e-09 -8.71394e+06)
(-5.88802e+07 -0.110812 -7.4279e-10 9.92753e+07 1.37751e-17 -8.71394e+06)
(-5.88802e+07 0.194155 1.50673e-09 9.92753e+07 4.96677e-18 -8.71394e+06)
(-5.88802e+07 -0.101278 2.50961e-18 9.92753e+07 -5.1471e-09 -8.71394e+06)
(-5.88802e+07 0.104672 -1.49616e-09 9.92753e+07 2.57355e-09 -8.71394e+06)
(-5.88802e+07 -0.097038 -2.1154e-11 9.92753e+07 5.1471e-09 -8.71394e+06)
(-5.88802e+07 -0.0242905 3.0452e-09 9.92753e+07 -2.57355e-09 -8.71394e+06)
(-5.88802e+07 -0.0163361 -7.48078e-10 9.92753e+07 -1.28677e-09 -8.71394e+06)
(-5.88802e+07 -0.140772 4.64397e-18 9.92753e+07 2.57355e-09 -8.71394e+06)
(-5.88802e+07 0.225392 7.48078e-10 9.92753e+07 -1.28677e-09 -8.71394e+06)
(-5.88802e+07 -0.0863884 -7.63944e-10 9.92753e+07 -5.1471e-09 -8.71394e+06)
(-5.88802e+07 0.0585206 2.64426e-11 9.92753e+07 1.28677e-09 -8.71394e+06)
(-5.88802e+07 -0.126377 -7.79809e-10 9.92753e+07 3.86032e-09 -8.71394e+06)
(-5.88802e+07 0.107415 0 9.92753e+07 0 -8.71394e+06)
(-5.88802e+07 -0.0651342 -5.28851e-12 9.92753e+07 -1.28677e-09 -8.71394e+06)
(-5.88802e+07 -0.0125677 -5.28852e-12 9.92753e+07 -3.86032e-09 -8.71394e+06)
(-5.88802e+07 -0.0861653 -1.50144e-09 9.92753e+07 1.28677e-09 -8.71394e+06)
(-5.88802e+07 0.187454 7.4279e-10 9.92753e+07 2.57355e-09 -8.71394e+06)
(-5.88802e+07 -0.0266456 -5.28851e-12 9.92753e+07 -3.86032e-09 -8.71394e+06)
(-5.88802e+07 -0.0431568 -1.50673e-09 9.92753e+07 -6.81955e-18 -8.71394e+06)
(-5.88802e+07 0.030781 -1.0577e-11 9.92753e+07 2.57355e-09 -8.71394e+06)
(-5.77834e+07 -0.0440701 -7.60621e-10 9.74254e+07 6.15816e-19 -8.4553e+06)
(-5.77834e+07 0.06311 -1.51745e-09 9.74254e+07 -2.49492e-09 -8.4553e+06)
(-5.77834e+07 -0.0649161 -5.61366e-13 9.74254e+07 8.23812e-18 -8.4553e+06)
(-5.77834e+07 0.0873924 -5.1205e-12 9.74254e+07 3.74238e-09 -8.4553e+06)
(-5.77834e+07 -0.13518 -1.53471e-09 9.74254e+07 -2.49492e-09 -8.4553e+06)
(-5.77834e+07 0.0981451 7.70301e-10 9.74254e+07 -4.49205e-17 -8.4553e+06)
(-5.77834e+07 -0.0512572 -2.37086e-11 9.74254e+07 1.73918e-17 -8.4553e+06)
(-5.77834e+07 0.0944652 1.66941e-11 9.74254e+07 1.36689e-17 -8.4553e+06)
(-5.77834e+07 0.00503937 -7.81103e-10 9.74254e+07 2.49492e-09 -8.4553e+06)
(-5.77834e+07 0.034804 7.51713e-10 9.74254e+07 -1.24746e-09 -8.4553e+06)
(-5.77834e+07 -0.0581174 -1.40289e-11 9.74254e+07 -5.19943e-18 -8.4553e+06)
(-5.77834e+07 0.0877613 2.28509e-09 9.74254e+07 2.49492e-09 -8.4553e+06)
(-5.77834e+07 -0.189673 -1.50343e-09 9.74254e+07 2.49492e-09 -8.4553e+06)
(-5.77834e+07 0.151761 -7.63848e-10 9.74254e+07 -2.49492e-09 -8.4553e+06)
(-5.77834e+07 -0.152069 -2.24735e-09 9.74254e+07 1.94942e-17 -8.4553e+06)
(-5.77834e+07 0.0571466 -1.3326e-12 9.74254e+07 1.24746e-09 -8.4553e+06)
(-5.77834e+07 -0.0837095 -4.25023e-18 9.74254e+07 -2.49492e-09 -8.4553e+06)
(-5.77834e+07 -0.0132475 7.58727e-10 9.74254e+07 -1.24746e-09 -8.4553e+06)
(-5.77834e+07 -0.000152767 -7.67635e-10 9.74254e+07 2.95254e-18 -8.4553e+06)
(-5.77834e+07 -0.0203497 -1.52124e-09 9.74254e+07 9.02191e-18 -8.4553e+06)
(-5.77834e+07 0.0839739 5.1205e-12 9.74254e+07 1.24746e-09 -8.4553e+06)
(-5.77834e+07 -0.11844 -1.51935e-09 9.74254e+07 1.24746e-09 -8.4553e+06)
(-5.77834e+07 0.150025 7.60621e-10 9.74254e+07 -9.49773e-18 -8.4553e+06)
(-5.77834e+07 -0.177317 7.53607e-10 9.74254e+07 3.34583e-18 -8.4553e+06)
(-5.77834e+07 0.126874 -7.68968e-10 9.74254e+07 -3.74238e-09 -8.4553e+06)
(-5.77834e+07 -0.157595 -7.49047e-10 9.74254e+07 -1.24746e-09 -8.4553e+06)
(-5.77834e+07 0.0536383 7.36351e-10 9.74254e+07 2.49492e-09 -8.4553e+06)
(-5.77834e+07 -0.0707788 -3.02333e-09 9.74254e+07 1.24746e-09 -8.4553e+06)
(-5.77834e+07 0.0879449 -7.58727e-10 9.74254e+07 1.24746e-09 -8.4553e+06)
(-5.77834e+07 -0.119108 1.59229e-11 9.74254e+07 -1.24746e-09 -8.4553e+06)
(-5.77834e+07 0.174775 1.52257e-09 9.74254e+07 1.24746e-09 -8.4553e+06)
(-5.77834e+07 -0.119129 1.50588e-09 9.74254e+07 1.24746e-09 -8.4553e+06)
(-5.77834e+07 0.0927722 1.72555e-11 9.74254e+07 3.27166e-18 -8.4553e+06)
(-5.77834e+07 -0.0609314 -8.34704e-12 9.74254e+07 -1.24746e-09 -8.4553e+06)
(-5.77834e+07 0.0411949 8.34705e-12 9.74254e+07 -1.24746e-09 -8.4553e+06)
(-5.77834e+07 -0.0706449 -3.22654e-12 9.74254e+07 1.56741e-19 -8.4553e+06)
(-5.77834e+07 0.0290921 5.1205e-12 9.74254e+07 -1.24746e-09 -8.4553e+06)
(-5.77834e+07 -0.0471309 -1.49697e-09 9.74254e+07 2.49492e-09 -8.4553e+06)
(-5.77834e+07 -0.00952449 -1.50343e-09 9.74254e+07 2.49492e-09 -8.4553e+06)
(-5.77834e+07 0.0630362 3.78792e-12 9.74254e+07 -2.49492e-09 -8.4553e+06)
(-5.77834e+07 -0.0714813 3.0387e-09 9.74254e+07 -2.49492e-09 -8.4553e+06)
(-5.77834e+07 0.0261957 0 9.74254e+07 0 -8.4553e+06)
(-5.77834e+07 0.0616432 1.51745e-09 9.74254e+07 2.49492e-09 -8.4553e+06)
(-5.77834e+07 -0.0139943 -1.53615e-11 9.74254e+07 1.24746e-09 -8.4553e+06)
(-5.77834e+07 0.0246231 7.01445e-12 9.74254e+07 -2.49492e-09 -8.4553e+06)
(-5.77834e+07 -0.0200245 -7.59288e-10 9.74254e+07 1.24746e-09 -8.4553e+06)
(-5.77834e+07 0.106022 1.50588e-09 9.74254e+07 1.24746e-09 -8.4553e+06)
(-5.77834e+07 -0.0917977 -7.01447e-12 9.74254e+07 -2.49492e-09 -8.4553e+06)
(-5.77834e+07 0.0921807 -1.511e-09 9.74254e+07 1.94698e-17 -8.4553e+06)
(-5.77834e+07 -0.0963882 1.59229e-11 9.74254e+07 1.24746e-09 -8.4553e+06)
(-5.77834e+07 0.0968072 -2.26082e-09 9.74254e+07 3.84915e-17 -8.4553e+06)
(-5.77834e+07 -0.0193613 -2.26594e-09 9.74254e+07 -1.24746e-09 -8.4553e+06)
(-5.77834e+07 0.00791369 -7.52274e-10 9.74254e+07 1.24746e-09 -8.4553e+06)
(-5.77834e+07 0.106738 -1.51745e-09 9.74254e+07 2.49492e-09 -8.4553e+06)
(-5.77834e+07 -0.119831 -1.34676e-11 9.74254e+07 -4.98984e-09 -8.4553e+06)
(-5.77834e+07 0.16237 1.52391e-09 9.74254e+07 -2.49492e-09 -8.4553e+06)
(-5.77834e+07 -0.0620509 -3.04248e-09 9.74254e+07 4.98984e-09 -8.4553e+06)
(-5.77834e+07 0.0196222 7.4526e-10 9.74254e+07 1.24746e-09 -8.4553e+06)
(-5.77834e+07 -0.0600753 -3.02144e-09 9.74254e+07 -2.49492e-09 -8.4553e+06)
(-5.77834e+07 0.0926928 1.51745e-09 9.74254e+07 -2.26856e-17 -8.4553e+06)
(-5.77834e+07 -0.0829927 -1.51423e-09 9.74254e+07 2.49492e-09 -8.4553e+06)
(-5.77834e+07 0.0819913 2.26461e-09 9.74254e+07 -5.45642e-17 -8.4553e+06)
(-5.77834e+07 -0.138144 -2.26082e-09 9.74254e+07 -2.49492e-09 -8.4553e+06)
(-5.77834e+07 0.0500008 7.51713e-10 9.74254e+07 -1.24746e-09 -8.4553e+06)
(-5.77834e+07 -0.154287 7.63848e-10 9.74254e+07 2.49492e-09 -8.4553e+06)
(-5.77834e+07 0.174937 3.022e-09 9.74254e+07 -8.27437e-17 -8.4553e+06)
(-5.77834e+07 -0.203082 -7.47153e-10 9.74254e+07 -2.15526e-17 -8.4553e+06)
(-5.77834e+07 0.203205 -1.34676e-11 9.74254e+07 -3.73546e-19 -8.4553e+06)
(-5.77834e+07 -0.144747 -1.50076e-09 9.74254e+07 3.2982e-17 -8.4553e+06)
(-5.77834e+07 0.160794 -2.26917e-09 9.74254e+07 1.24746e-09 -8.4553e+06)
(-5.77834e+07 -0.0756745 -7.01446e-12 9.74254e+07 -2.49492e-09 -8.4553e+06)
(-5.77834e+07 0.0274089 -7.65742e-10 9.74254e+07 -3.74238e-09 -8.4553e+06)
(-5.77834e+07 -0.0212466 -1.50455e-09 9.74254e+07 2.49492e-09 -8.4553e+06)
(-5.77834e+07 -0.0205655 1.49564e-09 9.74254e+07 3.74238e-09 -8.4553e+06)
(-5.77834e+07 0.00491958 7.65742e-10 9.74254e+07 -1.24746e-09 -8.4553e+06)
(-5.77834e+07 -0.0298339 7.01447e-12 9.74254e+07 3.08881e-18 -8.4553e+06)
(-5.77834e+07 0.00949042 1.89397e-12 9.74254e+07 -1.24746e-09 -8.4553e+06)
(-5.77834e+07 0.0729049 -5.1205e-12 9.74254e+07 -3.74238e-09 -8.4553e+06)
(-5.77834e+07 -0.0574588 7.6006e-10 9.74254e+07 4.53792e-18 -8.4553e+06)
(-5.77834e+07 0.082372 1.511e-09 9.74254e+07 2.49492e-09 -8.4553e+06)
(-5.77834e+07 -0.0690712 7.53607e-10 9.74254e+07 -4.8986e-18 -8.4553e+06)
(-5.77834e+07 0.0644581 -2.26783e-09 9.74254e+07 2.01354e-17 -8.4553e+06)
(-5.77834e+07 -0.0689955 7.44698e-10 9.74254e+07 1.24746e-09 -8.4553e+06)
(-5.77834e+07 0.0543427 1.08024e-11 9.74254e+07 -3.49544e-18 -8.4553e+06)
(-5.77834e+07 -0.00500867 5.1205e-12 9.74254e+07 -1.24746e-09 -8.4553e+06)
(-5.77834e+07 -0.0329411 -7.60621e-10 9.74254e+07 1.80408e-18 -8.4553e+06)
(-5.77834e+07 0.0309725 -1.89396e-12 9.74254e+07 1.24746e-09 -8.4553e+06)
(-5.77834e+07 -0.0214006 7.33125e-10 9.74254e+07 -2.49492e-09 -8.4553e+06)
(-5.77834e+07 0.0230094 3.0723e-11 9.74254e+07 -1.65428e-17 -8.4553e+06)
(-5.77834e+07 0.0649046 7.38245e-10 9.74254e+07 3.74238e-09 -8.4553e+06)
(-5.77834e+07 -0.0610014 -7.58727e-10 9.74254e+07 -1.24746e-09 -8.4553e+06)
(-5.77834e+07 0.116311 3.03358e-09 9.74254e+07 -1.24746e-09 -8.4553e+06)
(-5.77834e+07 -0.0741441 -7.60621e-10 9.74254e+07 2.50314e-18 -8.4553e+06)
(-5.77834e+07 0.0700492 -1.49697e-09 9.74254e+07 2.49492e-09 -8.4553e+06)
(-5.77834e+07 -0.0547521 7.29898e-10 9.74254e+07 -2.49492e-09 -8.4553e+06)
(-5.77834e+07 -0.00661697 1.52903e-09 9.74254e+07 -1.24746e-09 -8.4553e+06)
(-5.77834e+07 0.0114678 -8.34704e-12 9.74254e+07 3.74238e-09 -8.4553e+06)
(-5.77834e+07 -0.0830713 0 9.74254e+07 0 -8.4553e+06)
(-5.77834e+07 0.112222 3.03547e-09 9.74254e+07 -1.90878e-17 -8.4553e+06)
(-5.77834e+07 -0.0731818 -8.34705e-12 9.74254e+07 -3.74238e-09 -8.4553e+06)
(-5.77834e+07 0.0604788 -1.4854e-09 9.74254e+07 1.24746e-09 -8.4553e+06)
(-5.77834e+07 -0.0761188 7.42033e-10 9.74254e+07 3.74238e-09 -8.4553e+06)
(-5.77834e+07 0.0594505 -7.55501e-10 9.74254e+07 -1.24746e-09 -8.4553e+06)
(-5.77834e+07 -0.0483352 -7.65742e-10 9.74254e+07 -1.24746e-09 -8.4553e+06)
(-5.77834e+07 0.0245908 -7.55501e-10 9.74254e+07 -1.24746e-09 -8.4553e+06)
(-5.77834e+07 -0.053611 -1.50721e-09 9.74254e+07 -5.18323e-18 -8.4553e+06)
(-5.77834e+07 0.0866958 7.53607e-10 9.74254e+07 -9.70223e-18 -8.4553e+06)
(-5.77834e+07 -0.023872 0 9.74254e+07 0 -8.4553e+06)
(-5.77834e+07 -0.00562631 -1.50721e-09 9.74254e+07 -3.99755e-18 -8.4553e+06)
(-5.77834e+07 0.0208842 0 9.74254e+07 0 -8.4553e+06)
(-5.61749e+07 -0.0251275 1.90763e-12 9.54717e+07 -1.20745e-09 -8.16914e+06)
(-5.61749e+07 0.0144384 9.80991e-12 9.54717e+07 -5.92596e-18 -8.16914e+06)
(-5.61749e+07 -0.0418653 -2.98516e-09 9.54717e+07 -7.18917e-18 -8.16914e+06)
(-5.61749e+07 0.0380385 -1.48318e-09 9.54717e+07 1.20745e-09 -8.16914e+06)
(-5.61749e+07 -0.00266254 2.23404e-09 9.54717e+07 -2.71565e-18 -8.16914e+06)
(-5.61749e+07 0.049718 -1.47446e-09 9.54717e+07 -2.41491e-09 -8.16914e+06)
(-5.61749e+07 -0.0330982 -7.55761e-10 9.54717e+07 3.49802e-18 -8.16914e+06)
(-5.61749e+07 0.00858841 -1.47446e-09 9.54717e+07 2.41491e-09 -8.16914e+06)
(-5.61749e+07 -0.0251744 7.41046e-10 9.54717e+07 1.20745e-09 -8.16914e+06)
(-5.61749e+07 0.0304106 1.51452e-09 9.54717e+07 2.92539e-19 -8.16914e+06)
(-5.61749e+07 -0.0285279 -1.08996e-11 9.54717e+07 -3.62236e-09 -8.16914e+06)
(-5.61749e+07 0.0424806 1.58046e-11 9.54717e+07 -2.41491e-09 -8.16914e+06)
(-5.61749e+07 -0.0437475 1.48427e-09 9.54717e+07 4.82981e-09 -8.16914e+06)
(-5.61749e+07 0.0167166 -1.47149e-11 9.54717e+07 1.20745e-09 -8.16914e+06)
(-5.61749e+07 -0.0731141 6.81259e-12 9.54717e+07 -2.41491e-09 -8.16914e+06)
(-5.61749e+07 0.0234043 1.49408e-09 9.54717e+07 -9.07811e-18 -8.16914e+06)
(-5.61749e+07 -0.0231339 7.39138e-10 9.54717e+07 -4.91968e-18 -8.16914e+06)
(-5.61749e+07 0.00753246 1.47149e-11 9.54717e+07 1.20745e-09 -8.16914e+06)
(-5.61749e+07 -0.0114042 3.81526e-12 9.54717e+07 2.41491e-09 -8.16914e+06)
(-5.61749e+07 -0.0411967 2.99961e-09 9.54717e+07 -2.41491e-09 -8.16914e+06)
(-5.61749e+07 0.0173652 1.96198e-11 9.54717e+07 1.18961e-17 -8.16914e+06)
(-5.61749e+07 -0.0450408 7.36141e-10 9.54717e+07 -1.72179e-17 -8.16914e+06)
(-5.61749e+07 0.0364473 2.25475e-09 9.54717e+07 -1.20745e-09 -8.16914e+06)
(-5.61749e+07 -0.0653942 7.44043e-10 9.54717e+07 1.20745e-09 -8.16914e+06)
(-5.61749e+07 0.044182 -7.48948e-10 9.54717e+07 4.69365e-18 -8.16914e+06)
(-5.61749e+07 -0.0398731 -1.47746e-09 9.54717e+07 -1.87605e-17 -8.16914e+06)
(-5.61749e+07 0.037548 1.17175e-11 9.54717e+07 1.20745e-09 -8.16914e+06)
(-5.61749e+07 -0.0570524 3.81524e-12 9.54717e+07 6.10775e-18 -8.16914e+06)
(-5.61749e+07 0.0352958 7.39138e-10 9.54717e+07 -4.82981e-09 -8.16914e+06)
(-5.61749e+07 -0.0447041 7.53035e-10 9.54717e+07 -1.20745e-09 -8.16914e+06)
(-5.61749e+07 0.026169 -9.80991e-12 9.54717e+07 2.41491e-09 -8.16914e+06)
(-5.61749e+07 -0.0427778 -1.36252e-11 9.54717e+07 -8.81693e-18 -8.16914e+06)
(-5.61749e+07 0.0439318 7.4704e-10 9.54717e+07 1.20745e-09 -8.16914e+06)
(-5.61749e+07 -0.0358141 -1.17175e-11 9.54717e+07 1.20745e-09 -8.16914e+06)
(-5.61749e+07 0.0189437 -1.49599e-09 9.54717e+07 -1.20745e-09 -8.16914e+06)
(-5.61749e+07 -0.0180391 7.4704e-10 9.54717e+07 -1.20745e-09 -8.16914e+06)
(-5.61749e+07 0.0139531 0 9.54717e+07 0 -8.16914e+06)
(-5.61749e+07 -0.00494003 1.4979e-09 9.54717e+07 -9.12183e-18 -8.16914e+06)
(-5.61749e+07 -0.0192457 1.48427e-09 9.54717e+07 -1.73816e-17 -8.16914e+06)
(-5.61749e+07 -0.00260668 -2.34351e-11 9.54717e+07 -2.41491e-09 -8.16914e+06)
(-5.61749e+07 0.02003 1.50389e-09 9.54717e+07 -2.47894e-17 -8.16914e+06)
(-5.61749e+07 0.0144088 -9.80991e-12 9.54717e+07 2.41491e-09 -8.16914e+06)
(-5.61749e+07 -0.0201064 9.80991e-12 9.54717e+07 2.41491e-09 -8.16914e+06)
(-5.61749e+07 0.000691688 1.47828e-09 9.54717e+07 -4.9351e-17 -8.16914e+06)
(-5.61749e+07 0.0446465 -7.31236e-10 9.54717e+07 1.20745e-09 -8.16914e+06)
(-5.61749e+07 -0.0195298 -8.99198e-12 9.54717e+07 1.61285e-17 -8.16914e+06)
(-5.61749e+07 0.0126055 1.5088e-09 9.54717e+07 -1.20745e-09 -8.16914e+06)
(-5.61749e+07 -0.0191937 -7.51945e-10 9.54717e+07 2.41491e-09 -8.16914e+06)
(-5.61749e+07 0.0594403 -5.99466e-12 9.54717e+07 -4.82981e-09 -8.16914e+06)
(-5.61749e+07 -0.0151045 -7.35051e-10 9.54717e+07 -1.20745e-09 -8.16914e+06)
(-5.61749e+07 0.0213911 7.34233e-10 9.54717e+07 3.62236e-09 -8.16914e+06)
(-5.61749e+07 -0.0024409 7.53853e-10 9.54717e+07 1.20745e-09 -8.16914e+06)
(-5.61749e+07 -0.00412819 8.72021e-12 9.54717e+07 1.20745e-09 -8.16914e+06)
(-5.61749e+07 0.0420881 -4.90496e-12 9.54717e+07 -1.20745e-09 -8.16914e+06)
(-5.61749e+07 -0.012484 1.49108e-09 9.54717e+07 -2.41491e-09 -8.16914e+06)
(-5.61749e+07 0.017413 -1.45975e-09 9.54717e+07 3.62236e-09 -8.16914e+06)
(-5.61749e+07 -0.0364891 -7.08437e-12 9.54717e+07 1.20745e-09 -8.16914e+06)
(-5.61749e+07 0.0646208 1.5107e-09 9.54717e+07 -2.41491e-09 -8.16914e+06)
(-5.61749e+07 -0.0169953 -7.5685e-10 9.54717e+07 -1.20745e-09 -8.16914e+06)
(-5.61749e+07 0.000563841 1.96198e-11 9.54717e+07 -4.13553e-17 -8.16914e+06)
(-5.61749e+07 -0.0621174 7.36141e-10 9.54717e+07 -4.73588e-17 -8.16914e+06)
(-5.61749e+07 0.0210751 1.0897e-12 9.54717e+07 -1.20745e-09 -8.16914e+06)
(-5.61749e+07 -0.0327509 7.44043e-10 9.54717e+07 1.20745e-09 -8.16914e+06)
(-5.61749e+07 0.05817 1.90764e-12 9.54717e+07 -1.20745e-09 -8.16914e+06)
(-5.61749e+07 -0.0701541 -4.90496e-12 9.54717e+07 -3.62236e-09 -8.16914e+06)
(-5.61749e+07 0.0367859 1.50008e-09 9.54717e+07 2.41491e-09 -8.16914e+06)
(-5.61749e+07 -0.0626324 -1.08996e-11 9.54717e+07 3.62236e-09 -8.16914e+06)
(-5.61749e+07 0.0670239 1.50089e-09 9.54717e+07 -1.15478e-17 -8.16914e+06)
(-5.61749e+07 -0.0682009 -1.49408e-09 9.54717e+07 1.4547e-17 -8.16914e+06)
(-5.61749e+07 0.0308957 1.50089e-09 9.54717e+07 -3.40757e-17 -8.16914e+06)
(-5.61749e+07 -0.031886 7.45951e-10 9.54717e+07 -1.9075e-17 -8.16914e+06)
(-5.61749e+07 0.0324589 -1.48127e-09 9.54717e+07 1.34728e-17 -8.16914e+06)
(-5.61749e+07 -0.00760658 -1.48536e-09 9.54717e+07 -1.20745e-09 -8.16914e+06)
(-5.61749e+07 -0.00404498 1.49408e-09 9.54717e+07 -2.41491e-09 -8.16914e+06)
(-5.61749e+07 0.00715979 7.42136e-10 9.54717e+07 -1.7468e-18 -8.16914e+06)
(-5.61749e+07 0.0169264 -7.55761e-10 9.54717e+07 8.12726e-18 -8.16914e+06)
(-5.61749e+07 -0.0153537 7.42136e-10 9.54717e+07 -7.32787e-18 -8.16914e+06)
(-5.61749e+07 -0.00165959 -1.4979e-09 9.54717e+07 1.38584e-17 -8.16914e+06)
(-5.61749e+07 -0.0195067 -1.49408e-09 9.54717e+07 -2.41491e-09 -8.16914e+06)
(-5.61749e+07 0.034151 5.99466e-12 9.54717e+07 3.48538e-17 -8.16914e+06)
(-5.61749e+07 -0.0201186 -4.90495e-12 9.54717e+07 3.62236e-09 -8.16914e+06)
(-5.61749e+07 0.0324493 6.81258e-12 9.54717e+07 2.41491e-09 -8.16914e+06)
(-5.61749e+07 -0.0127741 -1.08996e-11 9.54717e+07 -3.62236e-09 -8.16914e+06)
(-5.61749e+07 0.00473917 7.5794e-10 9.54717e+07 -2.41491e-09 -8.16914e+06)
(-5.61749e+07 -0.0094062 -4.90495e-12 9.54717e+07 3.62236e-09 -8.16914e+06)
(-5.61749e+07 0.0134208 -1.49599e-09 9.54717e+07 1.20745e-09 -8.16914e+06)
(-5.61749e+07 0.0205567 -1.49108e-09 9.54717e+07 3.88369e-18 -8.16914e+06)
(-5.61749e+07 0.00710901 7.34233e-10 9.54717e+07 -3.62236e-09 -8.16914e+06)
(-5.61749e+07 -0.0090994 -1.46847e-09 9.54717e+07 1.82217e-17 -8.16914e+06)
(-5.61749e+07 0.0174701 7.34233e-10 9.54717e+07 3.62236e-09 -8.16914e+06)
(-5.61749e+07 -0.00875738 7.34233e-10 9.54717e+07 -3.62236e-09 -8.16914e+06)
(-5.61749e+07 0.0288849 1.58046e-11 9.54717e+07 -2.21482e-17 -8.16914e+06)
(-5.61749e+07 -0.0294401 -1.5107e-09 9.54717e+07 2.41491e-09 -8.16914e+06)
(-5.61749e+07 0.0230703 9.80991e-12 9.54717e+07 -1.26918e-17 -8.16914e+06)
(-5.61749e+07 -0.00754764 1.48127e-09 9.54717e+07 1.23536e-18 -8.16914e+06)
(-5.61749e+07 0.00504259 -1.47937e-09 9.54717e+07 -1.20745e-09 -8.16914e+06)
(-5.61749e+07 0.0224395 -7.50856e-10 9.54717e+07 1.20745e-09 -8.16914e+06)
(-5.61749e+07 -0.0165201 7.29328e-10 9.54717e+07 -2.41491e-09 -8.16914e+06)
(-5.61749e+07 0.00159138 7.53035e-10 9.54717e+07 -1.20745e-09 -8.16914e+06)
(-5.61749e+07 -0.0421529 7.32326e-10 9.54717e+07 2.41491e-09 -8.16914e+06)
(-5.61749e+07 0.0397308 -1.48427e-09 9.54717e+07 6.21228e-18 -8.16914e+06)
(-5.61749e+07 -0.0206324 1.49408e-09 9.54717e+07 2.41491e-09 -8.16914e+06)
(-5.61749e+07 0.0119045 7.45951e-10 9.54717e+07 2.41491e-09 -8.16914e+06)
(-5.61749e+07 -0.0221221 7.50856e-10 9.54717e+07 -1.20745e-09 -8.16914e+06)
(-5.61749e+07 0.0401206 -1.49108e-09 9.54717e+07 -2.41491e-09 -8.16914e+06)
(-5.61749e+07 -0.0173389 4.90495e-12 9.54717e+07 -1.20745e-09 -8.16914e+06)
(-5.61749e+07 -0.0062427 -1.4979e-09 9.54717e+07 3.05439e-18 -8.16914e+06)
(-5.61749e+07 -0.0137614 0 9.54717e+07 0 -8.16914e+06)
(-5.61749e+07 0.0200657 0 9.54717e+07 0 -8.16914e+06)
(-5.61749e+07 0.00585021 0 9.54717e+07 0 -8.16914e+06)
(-5.49108e+07 -0.0179058 -7.48585e-10 9.36719e+07 -2.95647e-18 -7.91861e+06)
(-5.49108e+07 0.00308972 9.4575e-12 9.36719e+07 2.34099e-09 -7.91861e+06)
(-5.49108e+07 -0.0287257 7.39128e-10 9.36719e+07 2.34099e-09 -7.91861e+06)
(-5.49108e+07 0.0267608 -5.59923e-12 9.36719e+07 -4.68198e-09 -7.91861e+06)
(-5.49108e+07 0.0185803 1.4856e-09 9.36719e+07 -2.34099e-09 -7.91861e+06)
(-5.49108e+07 0.0337525 -1.48386e-09 9.36719e+07 4.68198e-09 -7.91861e+06)
(-5.49108e+07 -0.0273475 -5.59923e-12 9.36719e+07 -2.03688e-18 -7.91861e+06)
(-5.49108e+07 -0.0129923 1.49331e-09 9.36719e+07 -2.34099e-09 -7.91861e+06)
(-5.49108e+07 -0.0328211 -2.27733e-11 9.36719e+07 -2.34099e-09 -7.91861e+06)
(-5.49108e+07 0.0213374 7.40869e-10 9.36719e+07 1.18512e-17 -7.91861e+06)
(-5.49108e+07 -0.0181562 2.94494e-09 9.36719e+07 2.34099e-09 -7.91861e+06)
(-5.49108e+07 0.0302917 -1.47054e-09 9.36719e+07 -1.97308e-18 -7.91861e+06)
(-5.49108e+07 -0.0106592 9.4575e-12 9.36719e+07 2.34099e-09 -7.91861e+06)
(-5.49108e+07 -0.00454451 -1.8915e-11 9.36719e+07 1.99477e-17 -7.91861e+06)
(-5.49108e+07 -0.044388 -7.39128e-10 9.36719e+07 -2.34099e-09 -7.91861e+06)
(-5.49108e+07 0.0147002 0 9.36719e+07 0 -7.91861e+06)
(-5.49108e+07 -0.00572979 -7.48585e-10 9.36719e+07 1.07184e-18 -7.91861e+06)
(-5.49108e+07 0.00926873 0 9.36719e+07 0 -7.91861e+06)
(-5.49108e+07 -0.0138686 1.45162e-09 9.36719e+07 -4.68198e-09 -7.91861e+06)
(-5.49108e+07 -0.0402973 1.48174e-09 9.36719e+07 -2.51162e-17 -7.91861e+06)
(-5.49108e+07 -0.00110501 -1.50277e-09 9.36719e+07 4.68198e-09 -7.91861e+06)
(-5.49108e+07 -0.0289291 -2.27733e-11 9.36719e+07 -2.34099e-09 -7.91861e+06)
(-5.49108e+07 0.00892455 -1.47826e-09 9.36719e+07 2.48663e-17 -7.91861e+06)
(-5.49108e+07 -0.0332784 -7.48585e-10 9.36719e+07 4.68198e-09 -7.91861e+06)
(-5.49108e+07 0.0233744 7.2967e-10 9.36719e+07 5.38692e-18 -7.91861e+06)
(-5.49108e+07 -0.0113847 7.44727e-10 9.36719e+07 -2.34099e-09 -7.91861e+06)
(-5.49108e+07 0.0310984 7.3527e-10 9.36719e+07 -3.43767e-18 -7.91861e+06)
(-5.49108e+07 -0.0405122 1.47054e-09 9.36719e+07 -4.26267e-18 -7.91861e+06)
(-5.49108e+07 0.0189925 -7.48585e-10 9.36719e+07 1.09503e-17 -7.91861e+06)
(-5.49108e+07 -0.0272834 1.33158e-11 9.36719e+07 2.37782e-18 -7.91861e+06)
(-5.49108e+07 -0.008644 9.4575e-12 9.36719e+07 2.34099e-09 -7.91861e+06)
(-5.49108e+07 -0.0246717 -5.59924e-12 9.36719e+07 5.5291e-18 -7.91861e+06)
(-5.49108e+07 0.021981 1.8915e-11 9.36719e+07 -2.26579e-17 -7.91861e+06)
(-5.49108e+07 -0.0223701 -7.44727e-10 9.36719e+07 2.34099e-09 -7.91861e+06)
(-5.49108e+07 0.01014 7.39128e-10 9.36719e+07 -2.34099e-09 -7.91861e+06)
(-5.49108e+07 -0.00335729 9.4575e-12 9.36719e+07 -2.34099e-09 -7.91861e+06)
(-5.49108e+07 0.0112476 -9.4575e-12 9.36719e+07 -2.34099e-09 -7.91861e+06)
(-5.49108e+07 0.00267688 5.59923e-12 9.36719e+07 -8.79662e-18 -7.91861e+06)
(-5.49108e+07 -0.0148073 -1.48386e-09 9.36719e+07 4.68198e-09 -7.91861e+06)
(-5.49108e+07 -0.0108239 -1.50567e-11 9.36719e+07 -2.34099e-09 -7.91861e+06)
(-5.49108e+07 0.0286808 -1.45548e-09 9.36719e+07 -2.34099e-09 -7.91861e+06)
(-5.49108e+07 0.00849138 -9.4575e-12 9.36719e+07 2.34099e-09 -7.91861e+06)
(-5.49108e+07 -0.0302756 0 9.36719e+07 0 -7.91861e+06)
(-5.49108e+07 0.00427969 1.48e-09 9.36719e+07 2.34099e-09 -7.91861e+06)
(-5.49108e+07 0.0378969 -5.59923e-12 9.36719e+07 5.36436e-18 -7.91861e+06)
(-5.49108e+07 -0.0144226 3.69912e-09 9.36719e+07 -2.34099e-09 -7.91861e+06)
(-5.49108e+07 -0.00421169 9.4575e-12 9.36719e+07 2.34099e-09 -7.91861e+06)
(-5.49108e+07 0.00267695 1.46494e-09 9.36719e+07 1.73202e-18 -7.91861e+06)
(-5.49108e+07 0.0442642 1.48945e-09 9.36719e+07 -1.05288e-17 -7.91861e+06)
(-5.49108e+07 0.00367454 -1.47614e-09 9.36719e+07 1.17486e-17 -7.91861e+06)
(-5.49108e+07 0.00671982 7.44727e-10 9.36719e+07 -2.34099e-09 -7.91861e+06)
(-5.49108e+07 -0.000987772 7.3527e-10 9.36719e+07 -1.3318e-17 -7.91861e+06)
(-5.49108e+07 -0.00588008 -3.85826e-12 9.36719e+07 2.34099e-09 -7.91861e+06)
(-5.49108e+07 0.0200166 1.46494e-09 9.36719e+07 -9.46092e-19 -7.91861e+06)
(-5.49108e+07 0.00486482 7.44727e-10 9.36719e+07 -2.34099e-09 -7.91861e+06)
(-5.49108e+07 -0.00931224 0 9.36719e+07 0 -7.91861e+06)
(-5.49108e+07 -0.0233834 2.94108e-09 9.36719e+07 -2.86729e-17 -7.91861e+06)
(-5.49108e+07 0.0594042 7.44727e-10 9.36719e+07 2.34099e-09 -7.91861e+06)
(-5.49108e+07 -0.0038426 1.46494e-09 9.36719e+07 6.53419e-18 -7.91861e+06)
(-5.49108e+07 -0.0142806 9.4575e-12 9.36719e+07 -2.34099e-09 -7.91861e+06)
(-5.49108e+07 -0.0432704 1.48e-09 9.36719e+07 2.34099e-09 -7.91861e+06)
(-5.49108e+07 0.00746971 -1.48945e-09 9.36719e+07 2.31611e-20 -7.91861e+06)