/*--------------------------------*- C++ -*----------------------------------*\
| =========                 |                                                 |
| \\      /  F ield         | OpenFOAM: The Open Source CFD Toolbox           |
|  \\    /   O peration     | Version:  2312                                  |
|   \\  /    A nd           | Website:  www.openfoam.com                      |
|    \\/     M anipulation  |                                                 |
\*---------------------------------------------------------------------------*/
FoamFile
{
    version     2.0;
    format      ascii;
    arch        "LSB;label=32;scalar=64";
    class       volSymmTensorField;
    location    "60";
    object      sigma;
}
// * * * * * * * * * * * * * * * * * * * * * * * * * * * * * * * * * * * * * //

dimensions      [1 -1 -2 0 0 0 0];

internalField   nonuniform List<symmTensor> 
12870
(
(-5.88722e+07 -1.12919e+06 7.79819e-12 9.92673e+07 -2.57356e-09 -8.71394e+06)
(-5.88077e+07 -3.38665e+06 -1.52866e-09 9.92028e+07 1.25432e-09 -8.71394e+06)
(-5.86788e+07 -5.64134e+06 2.17737e-09 9.90738e+07 2.65295e-09 -8.71394e+06)
(-5.84855e+07 -7.89144e+06 6.9568e-11 9.88806e+07 -1.2849e-09 -8.71394e+06)
(-5.82281e+07 -1.01351e+07 -8.3972e-10 9.86231e+07 1.2354e-09 -8.71394e+06)
(-5.79067e+07 -1.23705e+07 2.27422e-09 9.83017e+07 1.78985e-10 -8.71394e+06)
(-5.75216e+07 -1.45958e+07 -6.36123e-10 9.79166e+07 -1.35155e-09 -8.71394e+06)
(-5.70731e+07 -1.68092e+07 1.38684e-09 9.74682e+07 1.44329e-09 -8.71394e+06)
(-5.65615e+07 -1.90089e+07 -3.1161e-10 9.69566e+07 2.55461e-09 -8.71394e+06)
(-5.59874e+07 -2.11931e+07 1.33458e-09 9.63825e+07 1.48087e-09 -8.71394e+06)
(-5.53512e+07 -2.336e+07 1.69773e-09 9.57463e+07 -1.04489e-09 -8.71394e+06)
(-5.46533e+07 -2.55078e+07 1.58469e-09 9.50484e+07 -4.95469e-09 -8.71394e+06)
(-5.38944e+07 -2.76349e+07 -2.976e-09 9.42894e+07 -5.36929e-10 -8.71394e+06)
(-5.3075e+07 -2.97394e+07 -7.80935e-10 9.34701e+07 -1.52441e-10 -8.71394e+06)
(-5.21959e+07 -3.18196e+07 -1.20483e-09 9.2591e+07 -1.56796e-09 -8.71394e+06)
(-5.12577e+07 -3.38739e+07 -2.34326e-09 9.16528e+07 3.42956e-09 -8.71394e+06)
(-5.02613e+07 -3.59006e+07 -3.05534e-10 9.06564e+07 1.24999e-09 -8.71394e+06)
(-4.92074e+07 -3.78979e+07 7.40214e-10 8.96025e+07 1.88928e-10 -8.71394e+06)
(-4.80968e+07 -3.98644e+07 1.06833e-09 8.84919e+07 -1.04403e-09 -8.71394e+06)
(-4.69306e+07 -4.17984e+07 3.58786e-10 8.73257e+07 -1.23575e-09 -8.71394e+06)
(-4.57097e+07 -4.36983e+07 0 8.61047e+07 0 -8.71394e+06)
(-4.44349e+07 -4.55625e+07 -1.11207e-09 8.483e+07 9.97323e-10 -8.71394e+06)
(-4.31075e+07 -4.73895e+07 -8.12726e-10 8.35026e+07 2.44185e-09 -8.71394e+06)
(-4.17284e+07 -4.9178e+07 1.13011e-09 8.21235e+07 -9.68644e-10 -8.71394e+06)
(-4.02988e+07 -5.09263e+07 1.74395e-10 8.06939e+07 -2.67587e-09 -8.71394e+06)
(-3.88199e+07 -5.2633e+07 5.21032e-10 7.9215e+07 2.95272e-09 -8.71394e+06)
(-3.72928e+07 -5.42969e+07 2.34111e-09 7.76879e+07 -1.83871e-09 -8.71394e+06)
(-3.57189e+07 -5.59164e+07 -3.97414e-10 7.6114e+07 -2.9502e-09 -8.71394e+06)
(-3.40993e+07 -5.74904e+07 -7.20972e-10 7.44944e+07 -3.10771e-10 -8.71394e+06)
(-3.24355e+07 -5.90174e+07 -3.11486e-09 7.28306e+07 1.42438e-09 -8.71394e+06)
(-3.07287e+07 -6.04964e+07 -8.05487e-10 7.11238e+07 5.30227e-09 -8.71394e+06)
(-2.89804e+07 -6.1926e+07 1.10946e-09 6.93755e+07 -2.32215e-09 -8.71394e+06)
(-2.7192e+07 -6.3305e+07 -9.2968e-11 6.75871e+07 -1.48552e-09 -8.71394e+06)
(-2.53649e+07 -6.46325e+07 -1.27523e-09 6.576e+07 7.88215e-10 -8.71394e+06)
(-2.35007e+07 -6.59072e+07 1.27704e-09 6.38958e+07 -7.74928e-10 -8.71394e+06)
(-2.16008e+07 -6.71282e+07 -3.85095e-11 6.19959e+07 -1.49327e-09 -8.71394e+06)
(-1.96669e+07 -6.82944e+07 1.27229e-09 6.0062e+07 -2.23708e-09 -8.71394e+06)
(-1.77004e+07 -6.94049e+07 8.29636e-12 5.80955e+07 -2.98753e-09 -8.71394e+06)
(-1.5703e+07 -7.04588e+07 -3.94113e-09 5.60981e+07 6.032e-10 -8.71394e+06)
(-1.36764e+07 -7.14553e+07 -4.04295e-09 5.40714e+07 3.53293e-09 -8.71394e+06)
(-1.16221e+07 -7.23934e+07 1.2617e-09 5.20171e+07 8.23631e-10 -8.71394e+06)
(-9.54181e+06 -7.32725e+07 1.75469e-11 4.99369e+07 1.18153e-11 -8.71394e+06)
(-7.43731e+06 -7.40919e+07 -2.21403e-10 4.78324e+07 2.97932e-09 -8.71394e+06)
(-5.31027e+06 -7.48508e+07 1.48919e-09 4.57054e+07 -2.09895e-09 -8.71394e+06)
(-3.16242e+06 -7.55487e+07 -5.97797e-10 4.35575e+07 -4.4088e-10 -8.71394e+06)
(-995523 -7.6185e+07 -3.48795e-10 4.13906e+07 2.96711e-09 -8.71394e+06)
(1.18866e+06 -7.67591e+07 0 3.92064e+07 0 -8.71394e+06)
(3.38835e+06 -7.72706e+07 2.20142e-09 3.70067e+07 -1.53116e-09 -8.71394e+06)
(5.60175e+06 -7.77191e+07 3.28654e-09 3.47933e+07 -3.96122e-09 -8.71394e+06)
(7.82705e+06 -7.81042e+07 -6.32929e-11 3.2568e+07 -3.4385e-09 -8.71394e+06)
(1.00624e+07 -7.84256e+07 -1.72129e-09 3.03326e+07 -1.51316e-09 -8.71394e+06)
(1.23061e+07 -7.8683e+07 -4.27762e-09 2.8089e+07 1.33568e-09 -8.71394e+06)
(1.45562e+07 -7.88763e+07 -1.21002e-09 2.58389e+07 2.38972e-09 -8.71394e+06)
(1.68109e+07 -7.90052e+07 -1.09563e-09 2.35842e+07 -1.04967e-09 -8.71394e+06)
(1.90684e+07 -7.90697e+07 -2.35077e-09 2.13267e+07 1.2964e-09 -8.71394e+06)
(2.13267e+07 -7.90697e+07 3.0505e-09 1.90684e+07 1.26147e-09 -8.71394e+06)
(2.35842e+07 -7.90052e+07 1.46344e-11 1.68109e+07 1.52751e-11 -8.71394e+06)
(2.58389e+07 -7.88763e+07 1.86194e-09 1.45562e+07 -1.77689e-09 -8.71394e+06)
(2.8089e+07 -7.8683e+07 -1.5092e-09 1.23061e+07 -1.66813e-09 -8.71394e+06)
(3.03326e+07 -7.84256e+07 -9.45053e-10 1.00624e+07 2.82286e-09 -8.71394e+06)
(3.2568e+07 -7.81042e+07 -1.45744e-09 7.82705e+06 2.74893e-10 -8.71394e+06)
(3.47933e+07 -7.77191e+07 2.44139e-09 5.60175e+06 -1.0879e-09 -8.71394e+06)
(3.70067e+07 -7.72706e+07 -4.06252e-10 3.38835e+06 -2.55487e-09 -8.71394e+06)
(3.92064e+07 -7.67591e+07 -2.11477e-09 1.18866e+06 3.56149e-09 -8.71394e+06)
(4.13906e+07 -7.6185e+07 4.68568e-10 -995523 6.16706e-10 -8.71394e+06)
(4.35575e+07 -7.55487e+07 -6.27796e-12 -3.16242e+06 -8.51238e-12 -8.71394e+06)
(4.57054e+07 -7.48508e+07 1.49408e-09 -5.31027e+06 -1.23361e-10 -8.71394e+06)
(4.78324e+07 -7.40919e+07 6.18273e-10 -7.43731e+06 -1.36574e-09 -8.71394e+06)
(4.99369e+07 -7.32725e+07 3.19911e-09 -9.54181e+06 -2.16051e-09 -8.71394e+06)
(5.20171e+07 -7.23934e+07 -3.80806e-09 -1.16221e+07 -1.12546e-09 -8.71394e+06)
(5.40714e+07 -7.14553e+07 -1.78343e-09 -1.36764e+07 1.99466e-09 -8.71394e+06)
(5.60981e+07 -7.04588e+07 2.19984e-09 -1.5703e+07 -1.33566e-09 -8.71394e+06)
(5.80955e+07 -6.94049e+07 -1.42826e-09 -1.77004e+07 2.63631e-09 -8.71394e+06)
(6.0062e+07 -6.82944e+07 -1.12381e-09 -1.96669e+07 6.26974e-10 -8.71394e+06)
(6.19959e+07 -6.71282e+07 2.24989e-09 -2.16008e+07 -1.24947e-09 -8.71394e+06)
(6.38958e+07 -6.59072e+07 7.74928e-10 -2.35007e+07 -1.27704e-09 -8.71394e+06)
(6.576e+07 -6.46325e+07 -3.51674e-10 -2.53649e+07 -6.78185e-10 -8.71394e+06)
(6.75871e+07 -6.3305e+07 -1.1483e-09 -2.7192e+07 5.80711e-10 -8.71394e+06)
(6.93755e+07 -6.1926e+07 9.91895e-10 -2.89804e+07 2.05433e-09 -8.71394e+06)
(7.11238e+07 -6.04964e+07 4.46244e-12 -3.07287e+07 9.58958e-12 -8.71394e+06)
(7.28306e+07 -5.90174e+07 2.65229e-09 -3.24355e+07 -3.74498e-10 -8.71394e+06)
(7.44944e+07 -5.74904e+07 -2.95139e-09 -3.40993e+07 -3.45533e-10 -8.71394e+06)
(7.6114e+07 -5.59164e+07 8.56808e-10 -3.57189e+07 2.06852e-09 -8.71394e+06)
(7.76879e+07 -5.42969e+07 2.75416e-09 -3.72928e+07 -3.52149e-09 -8.71394e+06)
(7.9215e+07 -5.2633e+07 -2.40857e-09 -3.88199e+07 9.06673e-10 -8.71394e+06)
(8.06939e+07 -5.09263e+07 -1.20701e-09 -4.02988e+07 4.4603e-10 -8.71394e+06)
(8.21235e+07 -4.9178e+07 -2.17842e-09 -4.17284e+07 1.56884e-09 -8.71394e+06)
(8.35026e+07 -4.73895e+07 3.89568e-09 -4.31075e+07 -5.19328e-10 -8.71394e+06)
(8.483e+07 -4.55625e+07 1.27863e-11 -4.44349e+07 4.03297e-11 -8.71394e+06)
(8.61047e+07 -4.36983e+07 -2.25276e-09 -4.57097e+07 1.44373e-09 -8.71394e+06)
(8.73257e+07 -4.17984e+07 -2.04174e-10 -4.69306e+07 -7.14177e-10 -8.71394e+06)
(8.84919e+07 -3.98644e+07 3.93434e-10 -4.80968e+07 1.45446e-09 -8.71394e+06)
(8.96025e+07 -3.78979e+07 4.98721e-09 -4.92074e+07 -1.27291e-09 -8.71394e+06)
(9.06564e+07 -3.59006e+07 -2.85171e-09 -5.02613e+07 -8.54034e-10 -8.71394e+06)
(9.16528e+07 -3.38739e+07 -5.02617e-09 -5.12577e+07 1.10934e-09 -8.71394e+06)
(9.2591e+07 -3.18196e+07 3.14462e-09 -5.21959e+07 2.45107e-09 -8.71394e+06)
(9.34701e+07 -2.97394e+07 1.11961e-09 -5.3075e+07 -9.80751e-10 -8.71394e+06)
(9.42894e+07 -2.76349e+07 -2.53266e-09 -5.38944e+07 4.56942e-10 -8.71394e+06)
(9.50484e+07 -2.55078e+07 1.39176e-09 -5.46533e+07 5.27649e-10 -8.71394e+06)
(9.57463e+07 -2.336e+07 4.97523e-09 -5.53512e+07 -1.52424e-09 -8.71394e+06)
(9.63825e+07 -2.11931e+07 -1.27138e-09 -5.59874e+07 2.00228e-10 -8.71394e+06)
(9.69566e+07 -1.90089e+07 -3.92634e-09 -5.65615e+07 -3.06657e-10 -8.71394e+06)
(9.74682e+07 -1.68092e+07 0 -5.70731e+07 0 -8.71394e+06)
(9.79166e+07 -1.45958e+07 1.28075e-09 -5.75216e+07 -1.24532e-10 -8.71394e+06)
(9.83017e+07 -1.23705e+07 3.84801e-09 -5.79067e+07 -3.0815e-10 -8.71394e+06)
(9.86231e+07 -1.01351e+07 -1.38053e-09 -5.82281e+07 -1.41571e-09 -8.71394e+06)
(9.88806e+07 -7.89144e+06 -2.53323e-09 -5.84855e+07 8.70434e-10 -8.71394e+06)
(9.90738e+07 -5.64134e+06 3.85767e-09 -5.86788e+07 -1.43069e-10 -8.71394e+06)
(9.92028e+07 -3.38665e+06 -3.22717e-11 -5.88077e+07 -1.50639e-09 -8.71394e+06)
(9.92673e+07 -1.12919e+06 -2.57356e-09 -5.88722e+07 7.79819e-12 -8.71394e+06)
(-5.77755e+07 -1.10815e+06 -7.60602e-10 9.74175e+07 -5.43077e-12 -8.4553e+06)
(-5.77122e+07 -3.32355e+06 -1.46367e-09 9.73542e+07 -2.52685e-09 -8.4553e+06)
(-5.75856e+07 -5.53623e+06 -5.61009e-13 9.72277e+07 -2.00282e-14 -8.4553e+06)
(-5.7396e+07 -7.7444e+06 -1.9208e-10 9.7038e+07 3.73745e-09 -8.4553e+06)
(-5.71433e+07 -9.94626e+06 -1.37133e-09 9.67854e+07 -2.58832e-09 -8.4553e+06)
(-5.68279e+07 -1.214e+07 7.67926e-10 9.647e+07 6.0437e-11 -8.4553e+06)
(-5.645e+07 -1.43238e+07 -2.36065e-11 9.6092e+07 -2.19745e-12 -8.4553e+06)
(-5.60099e+07 -1.6496e+07 1.65984e-11 9.56519e+07 1.78453e-12 -8.4553e+06)
(-5.55079e+07 -1.86547e+07 -1.07745e-09 9.51499e+07 2.38199e-09 -8.4553e+06)
(-5.49445e+07 -2.07982e+07 9.13518e-10 9.45865e+07 -1.13433e-09 -8.4553e+06)
(-5.43201e+07 -2.29247e+07 -1.38715e-11 9.39621e+07 -2.09562e-12 -8.4553e+06)
(-5.36352e+07 -2.50325e+07 1.84647e-09 9.32772e+07 2.83493e-09 -8.4553e+06)
(-5.28904e+07 -2.712e+07 -1.92252e-09 9.25324e+07 2.18834e-09 -8.4553e+06)
(-5.20863e+07 -2.91852e+07 -2.71702e-10 9.17283e+07 -2.59505e-09 -8.4553e+06)
(-5.12236e+07 -3.12267e+07 -2.19935e-09 9.08656e+07 -4.62018e-10 -8.4553e+06)
(-5.03029e+07 -3.32427e+07 -2.75163e-10 8.99449e+07 1.21674e-09 -8.4553e+06)
(-4.9325e+07 -3.52317e+07 5.82428e-10 8.8967e+07 -2.42599e-09 -8.4553e+06)
(-4.82907e+07 -3.71918e+07 1.04366e-09 8.79328e+07 -1.02107e-09 -8.4553e+06)
(-4.72009e+07 -3.91217e+07 -7.41004e-10 8.68429e+07 -2.00443e-10 -8.4553e+06)
(-4.60564e+07 -4.10196e+07 -1.46264e-09 8.56984e+07 -4.18151e-10 -8.4553e+06)
(-4.48582e+07 -4.28841e+07 -3.55085e-10 8.45002e+07 1.19587e-09 -8.4553e+06)
(-4.36072e+07 -4.47136e+07 -1.82531e-09 8.32492e+07 7.29952e-10 -8.4553e+06)
(-4.23045e+07 -4.65066e+07 7.21697e-10 8.19465e+07 2.40204e-10 -8.4553e+06)
(-4.09511e+07 -4.82617e+07 7.1157e-10 8.05931e+07 2.48175e-10 -8.4553e+06)
(-3.95482e+07 -4.99774e+07 5.60375e-10 7.91902e+07 -3.77925e-09 -8.4553e+06)
(-3.80968e+07 -5.16524e+07 -2.55656e-10 7.77388e+07 -1.43243e-09 -8.4553e+06)
(-3.65982e+07 -5.32852e+07 -2.37499e-10 7.62402e+07 2.59045e-09 -8.4553e+06)
(-3.50536e+07 -5.48746e+07 -3.27058e-09 7.46956e+07 -4.47688e-12 -8.4553e+06)
(-3.34642e+07 -5.64192e+07 -1.19055e-09 7.31062e+07 8.45237e-10 -8.4553e+06)
(-3.18314e+07 -5.79178e+07 5.2463e-10 7.14734e+07 -1.13189e-09 -8.4553e+06)
(-3.01564e+07 -5.93692e+07 8.54129e-10 6.97984e+07 1.77337e-09 -8.4553e+06)
(-2.84407e+07 -6.07721e+07 8.13685e-10 6.80827e+07 1.77813e-09 -8.4553e+06)
(-2.66856e+07 -6.21255e+07 1.54303e-11 6.63276e+07 7.72385e-12 -8.4553e+06)
(-2.48925e+07 -6.34282e+07 5.66847e-10 6.45346e+07 -1.11127e-09 -8.4553e+06)
(-2.3063e+07 -6.46792e+07 5.97366e-10 6.27051e+07 -1.09516e-09 -8.4553e+06)
(-2.11986e+07 -6.58774e+07 -2.82076e-12 6.08406e+07 -1.5665e-12 -8.4553e+06)
(-1.93006e+07 -6.70219e+07 6.25598e-10 5.89427e+07 -1.07926e-09 -8.4553e+06)
(-1.73708e+07 -6.81117e+07 -2.5605e-09 5.70128e+07 1.38181e-09 -8.4553e+06)
(-1.54106e+07 -6.9146e+07 -2.58547e-09 5.50527e+07 1.34173e-09 -8.4553e+06)
(-1.34217e+07 -7.01239e+07 1.33704e-09 5.30638e+07 -2.10641e-09 -8.4553e+06)
(-1.14057e+07 -7.10446e+07 3.90833e-09 5.10477e+07 -4.28124e-10 -8.4553e+06)
(-9.36423e+06 -7.19073e+07 0 4.90063e+07 0 -8.4553e+06)
(-7.29894e+06 -7.27114e+07 -1.76442e-10 4.6941e+07 2.91482e-09 -8.4553e+06)
(-5.21153e+06 -7.34562e+07 -7.38506e-10 4.48536e+07 1.00549e-09 -8.4553e+06)
(-3.1037e+06 -7.41411e+07 1.4865e-09 4.27457e+07 -2.00375e-09 -8.4553e+06)
(-977176 -7.47655e+07 -1.35926e-09 4.06192e+07 5.33928e-10 -8.4553e+06)
(1.16631e+06 -7.53289e+07 4.17121e-10 3.84757e+07 1.91046e-09 -8.4553e+06)
(3.32502e+06 -7.58309e+07 1.56002e-09 3.6317e+07 -1.94705e-09 -8.4553e+06)
(5.49717e+06 -7.6271e+07 -1.16287e-09 3.41449e+07 -9.6481e-10 -8.4553e+06)
(7.68101e+06 -7.66489e+07 -7.98053e-10 3.1961e+07 9.58917e-10 -8.4553e+06)
(9.87476e+06 -7.69644e+07 -1.698e-09 2.97673e+07 -1.49268e-09 -8.4553e+06)
(1.20766e+07 -7.7217e+07 -8.4339e-10 2.75654e+07 -2.44527e-09 -8.4553e+06)
(1.42848e+07 -7.74067e+07 -1.40063e-09 2.53572e+07 4.00397e-10 -8.4553e+06)
(1.64975e+07 -7.75332e+07 -2.82172e-09 2.31446e+07 7.51782e-10 -8.4553e+06)
(1.87129e+07 -7.75965e+07 3.49348e-09 2.09292e+07 -3.56291e-09 -8.4553e+06)
(2.09292e+07 -7.75965e+07 2.84657e-09 1.87129e+07 -6.66303e-10 -8.4553e+06)
(2.31446e+07 -7.75332e+07 -5.7079e-09 1.64975e+07 1.25502e-09 -8.4553e+06)
(2.53572e+07 -7.74067e+07 -4.05176e-10 1.42848e+07 1.39549e-09 -8.4553e+06)
(2.75654e+07 -7.7217e+07 -1.76968e-10 1.20766e+07 -3.91439e-09 -8.4553e+06)
(2.97673e+07 -7.69644e+07 1.00188e-09 9.87476e+06 1.13969e-09 -8.4553e+06)
(3.1961e+07 -7.66489e+07 -2.88056e-09 7.68101e+06 4.68894e-10 -8.4553e+06)
(3.41449e+07 -7.6271e+07 1.44601e-09 5.49717e+06 1.74285e-09 -8.4553e+06)
(3.6317e+07 -7.58309e+07 5.24055e-10 3.32502e+06 -3.32585e-09 -8.4553e+06)
(3.84757e+07 -7.53289e+07 1.44567e-09 1.16631e+06 -1.76803e-10 -8.4553e+06)
(4.06192e+07 -7.47655e+07 -1.52445e-09 -977175 2.11758e-09 -8.4553e+06)
(4.27457e+07 -7.41411e+07 1.7937e-09 -3.1037e+06 2.43211e-09 -8.4553e+06)
(4.48536e+07 -7.34562e+07 -4.34839e-10 -5.21153e+06 -6.0758e-10 -8.4553e+06)
(4.6941e+07 -7.27114e+07 -7.68085e-12 -7.29894e+06 -1.10625e-11 -8.4553e+06)
(4.90063e+07 -7.19073e+07 -8.38227e-10 -9.36423e+06 -1.24485e-09 -8.4553e+06)
(5.10477e+07 -7.10446e+07 -2.28499e-09 -1.14057e+07 -1.21823e-09 -8.4553e+06)
(5.30638e+07 -7.01239e+07 2.10469e-09 -1.34217e+07 -1.33976e-09 -8.4553e+06)
(5.50527e+07 -6.9146e+07 2.79081e-09 -1.54106e+07 -2.60829e-09 -8.4553e+06)
(5.70128e+07 -6.81117e+07 -2.91339e-09 -1.73708e+07 -2.08493e-11 -8.4553e+06)
(5.89427e+07 -6.70219e+07 -2.50071e-09 -1.93006e+07 3.16051e-09 -8.4553e+06)
(6.08406e+07 -6.58774e+07 1.46234e-09 -2.11986e+07 6.37917e-11 -8.4553e+06)
(6.27051e+07 -6.46792e+07 3.31763e-12 -2.3063e+07 6.1803e-12 -8.4553e+06)
(6.45346e+07 -6.34282e+07 1.1083e-09 -2.48925e+07 -5.72575e-10 -8.4553e+06)
(6.63276e+07 -6.21255e+07 3.34424e-09 -2.66856e+07 -1.67973e-09 -8.4553e+06)
(6.80827e+07 -6.07721e+07 3.30476e-10 -2.84407e+07 6.84453e-10 -8.4553e+06)
(6.97984e+07 -5.93692e+07 -1.62451e-09 -3.01564e+07 2.42254e-09 -8.4553e+06)
(7.14734e+07 -5.79178e+07 3.08157e-10 -3.18314e+07 6.87722e-10 -8.4553e+06)
(7.31062e+07 -5.64192e+07 -8.97693e-10 -3.34642e+07 -2.0826e-09 -8.4553e+06)
(7.46956e+07 -5.48746e+07 -8.6752e-10 -3.50536e+07 1.16539e-09 -8.4553e+06)
(7.62402e+07 -5.32852e+07 3.99096e-12 -3.65982e+07 1.00381e-11 -8.4553e+06)
(7.77388e+07 -5.16524e+07 1.16749e-09 -3.80968e+07 -4.39492e-10 -8.4553e+06)
(7.91902e+07 -4.99774e+07 -2.60715e-10 -3.95482e+07 -7.14543e-10 -8.4553e+06)
(8.05931e+07 -4.82617e+07 -1.1785e-09 -4.09511e+07 4.09021e-10 -8.4553e+06)
(8.19465e+07 -4.65066e+07 2.59877e-09 -4.23045e+07 -9.22874e-11 -8.4553e+06)
(8.32492e+07 -4.47136e+07 9.28508e-12 -4.36072e+07 2.92864e-11 -8.4553e+06)
(8.45002e+07 -4.28841e+07 -3.37013e-09 -4.48582e+07 1.7868e-09 -8.4553e+06)
(8.56984e+07 -4.10196e+07 9.90854e-10 -4.60564e+07 -1.0724e-09 -8.4553e+06)
(8.68429e+07 -3.91217e+07 1.9963e-09 -4.72009e+07 2.6026e-09 -8.4553e+06)
(8.79328e+07 -3.71918e+07 -1.88107e-10 -4.82907e+07 -7.36994e-10 -8.4553e+06)
(8.8967e+07 -3.52317e+07 -2.77545e-09 -4.9325e+07 -8.73183e-10 -8.4553e+06)
(8.99449e+07 -3.32427e+07 2.59429e-09 -5.03029e+07 1.64365e-10 -8.4553e+06)
(9.08656e+07 -3.12267e+07 1.53516e-09 -5.12236e+07 1.23991e-09 -8.4553e+06)
(9.17283e+07 -2.91852e+07 -3.67465e-09 -5.20863e+07 7.08802e-10 -8.4553e+06)
(9.25324e+07 -2.712e+07 0 -5.28904e+07 0 -8.4553e+06)
(9.32772e+07 -2.50325e+07 4.96246e-10 -5.36352e+07 2.99463e-09 -8.4553e+06)
(9.39621e+07 -2.29247e+07 3.69915e-09 -5.43201e+07 -5.67285e-10 -8.4553e+06)
(9.45865e+07 -2.07982e+07 -1.43689e-09 -5.49445e+07 -1.30304e-09 -8.4553e+06)
(9.51499e+07 -1.86547e+07 -3.625e-09 -5.55079e+07 1.18971e-09 -8.4553e+06)
(9.56519e+07 -1.6496e+07 1.15955e-09 -5.60099e+07 -8.84519e-10 -8.4553e+06)
(9.6092e+07 -1.43238e+07 1.17112e-09 -5.645e+07 -8.78068e-10 -8.4553e+06)
(9.647e+07 -1.214e+07 1.18434e-09 -5.68279e+07 -8.51046e-10 -8.4553e+06)
(9.67854e+07 -9.94626e+06 -9.67866e-11 -5.71433e+07 -1.5041e-09 -8.4553e+06)
(9.7038e+07 -7.7444e+06 3.76495e-11 -5.7396e+07 7.52666e-10 -8.4553e+06)
(9.72277e+07 -5.53623e+06 0 -5.75856e+07 0 -8.4553e+06)
(9.73542e+07 -3.32355e+06 -3.2282e-11 -5.77122e+07 -1.50687e-09 -8.4553e+06)
(9.74175e+07 -1.10815e+06 0 -5.77755e+07 0 -8.4553e+06)
(-5.61672e+07 -1.08272e+06 1.05287e-11 9.5464e+07 -1.20741e-09 -8.16914e+06)
(-5.61054e+07 -3.24727e+06 9.80766e-12 9.54022e+07 2.10106e-13 -8.16914e+06)
(-5.59817e+07 -5.40917e+06 -2.98326e-09 9.52785e+07 -1.06547e-10 -8.16914e+06)
(-5.57964e+07 -7.56667e+06 -1.54165e-09 9.50932e+07 1.13185e-09 -8.16914e+06)
(-5.55496e+07 -9.71799e+06 2.22943e-09 9.48464e+07 1.4346e-10 -8.16914e+06)
(-5.52414e+07 -1.18614e+07 -1.28044e-09 9.45382e+07 -2.52315e-09 -8.16914e+06)
(-5.48722e+07 -1.39951e+07 -7.52507e-10 9.4169e+07 -7.00489e-11 -8.16914e+06)
(-5.44421e+07 -1.61174e+07 -1.72415e-09 9.37389e+07 2.24346e-09 -8.16914e+06)
(-5.39517e+07 -1.82266e+07 5.89393e-10 9.32485e+07 1.2883e-09 -8.16914e+06)
(-5.34012e+07 -2.03209e+07 1.5006e-09 9.2698e+07 2.0483e-10 -8.16914e+06)
(-5.27911e+07 -2.23986e+07 5.30325e-10 9.20879e+07 -3.58334e-09 -8.16914e+06)
(-5.21219e+07 -2.4458e+07 4.10387e-10 9.14187e+07 -2.37983e-09 -8.16914e+06)
(-5.13942e+07 -2.64975e+07 6.03139e-10 9.0691e+07 5.01661e-09 -8.16914e+06)
(-5.06086e+07 -2.85154e+07 -2.45775e-10 8.99054e+07 1.18227e-09 -8.16914e+06)
(-4.97657e+07 -3.05101e+07 5.03131e-10 8.90625e+07 -2.36192e-09 -8.16914e+06)
(-4.88661e+07 -3.24798e+07 1.45763e-09 8.81629e+07 3.28005e-10 -8.16914e+06)
(-4.79107e+07 -3.44231e+07 7.18716e-10 8.72075e+07 1.72548e-10 -8.16914e+06)
(-4.69001e+07 -3.63383e+07 -2.84353e-10 8.61969e+07 1.17359e-09 -8.16914e+06)
(-4.58353e+07 -3.82238e+07 -6.26891e-10 8.51321e+07 2.33212e-09 -8.16914e+06)
(-4.47171e+07 -4.00782e+07 3.54786e-09 8.40139e+07 -1.49737e-09 -8.16914e+06)
(-4.35464e+07 -4.18998e+07 1.87851e-11 8.28432e+07 5.66182e-12 -8.16914e+06)
(-4.23241e+07 -4.36874e+07 7.01718e-10 8.16209e+07 2.22475e-10 -8.16914e+06)
(-4.10513e+07 -4.54392e+07 2.52068e-09 8.03481e+07 -4.33615e-10 -8.16914e+06)
(-3.9729e+07 -4.7154e+07 3.04907e-10 7.90258e+07 1.38513e-09 -8.16914e+06)
(-3.83582e+07 -4.88304e+07 -7.03578e-10 7.7655e+07 -2.56714e-10 -8.16914e+06)
(-3.69402e+07 -5.04669e+07 -1.38058e-09 7.6237e+07 -5.26189e-10 -8.16914e+06)
(-3.5476e+07 -5.20623e+07 -4.35207e-10 7.47728e+07 1.12635e-09 -8.16914e+06)
(-3.39668e+07 -5.36152e+07 3.52482e-12 7.32636e+07 1.46003e-12 -8.16914e+06)
(-3.24139e+07 -5.51244e+07 2.59058e-09 7.17107e+07 -4.14274e-09 -8.16914e+06)
(-3.08185e+07 -5.65886e+07 1.18094e-09 7.01153e+07 -7.93968e-10 -8.16914e+06)
(-2.9182e+07 -5.80066e+07 -1.02774e-09 6.84788e+07 2.18532e-09 -8.16914e+06)
(-2.75056e+07 -5.93774e+07 -1.22698e-11 6.68024e+07 -5.92427e-12 -8.16914e+06)
(-2.57908e+07 -6.06997e+07 1.27546e-10 6.50876e+07 1.41412e-09 -8.16914e+06)
(-2.40389e+07 -6.19725e+07 -5.66242e-10 6.33358e+07 1.06651e-09 -8.16914e+06)
(-2.22514e+07 -6.31948e+07 -7.46994e-10 6.15483e+07 -1.77142e-09 -8.16914e+06)
(-2.04298e+07 -6.43655e+07 1.23931e-09 5.97266e+07 -6.92907e-10 -8.16914e+06)
(-1.85754e+07 -6.54837e+07 0 5.78722e+07 0 -8.16914e+06)
(-1.66898e+07 -6.65485e+07 1.28821e-09 5.59867e+07 7.64332e-10 -8.16914e+06)
(-1.47747e+07 -6.75591e+07 1.26555e-09 5.40715e+07 7.75529e-10 -8.16914e+06)
(-1.28314e+07 -6.85145e+07 1.27125e-09 5.21282e+07 -2.05335e-09 -8.16914e+06)
(-1.08617e+07 -6.94141e+07 1.25932e-09 5.01585e+07 8.22077e-10 -8.16914e+06)
(-8.86702e+06 -7.0257e+07 -1.35695e-09 4.81638e+07 1.99764e-09 -8.16914e+06)
(-6.84913e+06 -7.10426e+07 -1.36922e-09 4.61459e+07 1.98925e-09 -8.16914e+06)
(-4.80963e+06 -7.17703e+07 1.20212e-09 4.41064e+07 8.60348e-10 -8.16914e+06)
(-2.75018e+06 -7.24395e+07 -1.30518e-09 4.2047e+07 5.37735e-10 -8.16914e+06)
(-672456 -7.30496e+07 -7.15981e-12 3.99693e+07 -5.43994e-12 -8.16914e+06)
(1.42184e+06 -7.36001e+07 1.93235e-09 3.7875e+07 -2.10454e-11 -8.16914e+06)
(3.531e+06 -7.40905e+07 -2.10077e-09 3.57658e+07 1.40852e-09 -8.16914e+06)
(5.6533e+06 -7.45206e+07 3.07934e-09 3.36435e+07 -3.72086e-09 -8.16914e+06)
(7.78702e+06 -7.48898e+07 2.25241e-10 3.15098e+07 -1.39553e-09 -8.16914e+06)
(9.93042e+06 -7.5198e+07 -1.84018e-09 2.93664e+07 3.20536e-09 -8.16914e+06)
(1.20817e+07 -7.54448e+07 -2.51057e-10 2.72151e+07 1.40114e-09 -8.16914e+06)
(1.42392e+07 -7.56301e+07 -8.16398e-10 2.50576e+07 8.8967e-10 -8.16914e+06)
(1.64011e+07 -7.57538e+07 8.31773e-10 2.28957e+07 -8.75282e-10 -8.16914e+06)
(1.85657e+07 -7.58156e+07 2.75722e-09 2.07311e+07 -6.72944e-10 -8.16914e+06)
(2.07311e+07 -7.58156e+07 -3.60442e-09 1.85657e+07 1.5035e-09 -8.16914e+06)
(2.28957e+07 -7.57538e+07 -8.7679e-10 1.64011e+07 8.302e-10 -8.16914e+06)
(2.50576e+07 -7.56301e+07 2.79688e-09 1.42392e+07 -5.39884e-10 -8.16914e+06)
(2.72151e+07 -7.54448e+07 3.87618e-10 1.20817e+07 -1.37132e-09 -8.16914e+06)
(2.93664e+07 -7.5198e+07 1.29538e-11 9.93042e+06 1.47355e-11 -8.16914e+06)
(3.15098e+07 -7.48898e+07 4.78085e-10 7.78702e+06 5.59766e-10 -8.16914e+06)
(3.36435e+07 -7.45206e+07 9.29954e-10 5.6533e+06 -7.70149e-10 -8.16914e+06)
(3.57658e+07 -7.40905e+07 -4.73309e-10 3.531e+06 1.33698e-09 -8.16914e+06)
(3.7875e+07 -7.36001e+07 9.52071e-10 1.42184e+06 -7.42634e-10 -8.16914e+06)
(3.99693e+07 -7.30496e+07 2.88131e-09 -672455 -2.19535e-09 -8.16914e+06)
(4.2047e+07 -7.24395e+07 -1.05315e-09 -2.75018e+06 2.64062e-09 -8.16914e+06)
(4.41064e+07 -7.17703e+07 -2.95202e-09 -4.80963e+06 2.09933e-09 -8.16914e+06)
(4.61459e+07 -7.10426e+07 8.55994e-10 -6.84913e+06 1.23287e-09 -8.16914e+06)
(4.81638e+07 -7.0257e+07 -8.34497e-10 -8.86702e+06 -1.23931e-09 -8.16914e+06)
(5.01585e+07 -6.94141e+07 8.20439e-10 -1.08617e+07 1.25681e-09 -8.16914e+06)
(5.21282e+07 -6.85145e+07 3.98801e-10 -1.28314e+07 6.30397e-10 -8.16914e+06)
(5.40715e+07 -6.75591e+07 -7.73963e-10 -1.47747e+07 -1.26299e-09 -8.16914e+06)
(5.59867e+07 -6.65485e+07 2.80492e-10 -1.66898e+07 -1.89356e-09 -8.16914e+06)
(5.78722e+07 -6.54837e+07 2.8382e-09 -1.85754e+07 9.32144e-11 -8.16914e+06)
(5.97266e+07 -6.43655e+07 3.60309e-10 -2.04298e+07 6.48801e-10 -8.16914e+06)
(6.15482e+07 -6.31948e+07 -3.57452e-10 -2.22514e+07 -6.65884e-10 -8.16914e+06)
(6.33358e+07 -6.19725e+07 3.41635e-10 -2.40389e+07 6.58825e-10 -8.16914e+06)
(6.50876e+07 -6.06997e+07 -6.70484e-10 -2.57908e+07 -1.33946e-09 -8.16914e+06)
(6.68024e+07 -5.93774e+07 1.52505e-09 -2.75056e+07 -2.39547e-09 -8.16914e+06)
(6.84788e+07 -5.80066e+07 2.52911e-12 -2.9182e+07 5.43503e-12 -8.16914e+06)
(7.01153e+07 -5.65886e+07 -3.30768e-09 -3.08185e+07 1.47674e-09 -8.16914e+06)
(7.17107e+07 -5.51244e+07 -2.21496e-09 -3.24139e+07 9.62165e-10 -8.16914e+06)
(7.32636e+07 -5.36152e+07 3.34245e-09 -3.39668e+07 -1.39629e-09 -8.16914e+06)
(7.47728e+07 -5.20623e+07 2.52407e-09 -3.5476e+07 -1.87876e-10 -8.16914e+06)
(7.6237e+07 -5.04669e+07 -3.38659e-09 -3.69402e+07 1.2855e-09 -8.16914e+06)
(7.7655e+07 -4.88304e+07 -1.64708e-09 -3.83582e+07 -9.9149e-10 -8.16914e+06)
(7.90258e+07 -4.7154e+07 -4.91038e-10 -3.9729e+07 -1.40791e-09 -8.16914e+06)
(8.03481e+07 -4.54392e+07 3.66886e-09 -4.10513e+07 -4.4728e-10 -8.16914e+06)
(8.16209e+07 -4.36874e+07 -4.43798e-10 -4.23241e+07 -1.3998e-09 -8.16914e+06)
(8.28432e+07 -4.18998e+07 -3.25637e-09 -4.35464e+07 1.74832e-09 -8.16914e+06)
(8.40139e+07 -4.00782e+07 3.68465e-09 -4.47171e+07 -2.89744e-10 -8.16914e+06)
(8.51321e+07 -3.82238e+07 4.12687e-12 -4.58353e+07 1.52563e-11 -8.16914e+06)
(8.61969e+07 -3.63383e+07 -2.7135e-09 -4.69001e+07 -8.66555e-10 -8.16914e+06)
(8.72075e+07 -3.44231e+07 2.29009e-12 -4.79107e+07 9.53886e-12 -8.16914e+06)
(8.81629e+07 -3.24798e+07 3.25194e-10 -4.88661e+07 1.44514e-09 -8.16914e+06)
(8.90625e+07 -3.05101e+07 8.77529e-10 -4.97657e+07 -1.696e-09 -8.16914e+06)
(8.99054e+07 -2.85154e+07 -1.32894e-09 -5.06086e+07 -5.05613e-10 -8.16914e+06)
(9.0691e+07 -2.64975e+07 2.50603e-09 -5.13942e+07 2.88966e-10 -8.16914e+06)
(9.14187e+07 -2.4458e+07 1.31432e-09 -5.21219e+07 5.45507e-10 -8.16914e+06)
(9.20879e+07 -2.23986e+07 -2.27842e-09 -5.27911e+07 1.08484e-09 -8.16914e+06)
(9.2698e+07 -2.03209e+07 -2.00739e-10 -5.34012e+07 -1.47063e-09 -8.16914e+06)
(9.32485e+07 -1.82266e+07 -2.21623e-09 -5.39517e+07 1.77549e-09 -8.16914e+06)
(9.37389e+07 -1.61174e+07 -2.32133e-09 -5.44421e+07 9.99818e-10 -8.16914e+06)
(9.4169e+07 -1.39951e+07 1.27185e-09 -5.48722e+07 6.35709e-10 -8.16914e+06)
(9.45382e+07 -1.18614e+07 2.29047e-09 -5.52414e+07 -1.67596e-09 -8.16914e+06)
(9.48464e+07 -9.71799e+06 1.20528e-09 -5.55496e+07 -7.26425e-11 -8.16914e+06)
(9.50932e+07 -7.56667e+06 -7.48335e-11 -5.57964e+07 -1.49603e-09 -8.16914e+06)
(9.52785e+07 -5.40917e+06 0 -5.59817e+07 0 -8.16914e+06)
(9.54022e+07 -3.24727e+06 0 -5.61054e+07 0 -8.16914e+06)
(9.5464e+07 -1.08272e+06 0 -5.61672e+07 0 -8.16914e+06)
(-5.49032e+07 -1.06084e+06 -7.48566e-10 9.36643e+07 -5.34484e-12 -7.91861e+06)
(-5.48426e+07 -3.18166e+06 -4.06847e-11 9.36037e+07 2.34066e-09 -7.91861e+06)
(-5.47215e+07 -5.29988e+06 6.55102e-10 9.34826e+07 2.36588e-09 -7.91861e+06)
(-5.45399e+07 -7.41378e+06 2.28315e-10 9.33011e+07 -4.67641e-09 -7.91861e+06)
(-5.42981e+07 -9.52164e+06 1.63286e-09 9.30592e+07 -2.24076e-09 -7.91861e+06)
(-5.39961e+07 -1.16217e+07 -1.84662e-09 9.27573e+07 4.55113e-09 -7.91861e+06)
(-5.36343e+07 -1.37123e+07 -5.57513e-12 9.23955e+07 -5.18975e-13 -7.91861e+06)
(-5.3213e+07 -1.57918e+07 1.735e-09 9.19741e+07 -2.16795e-09 -7.91861e+06)
(-5.27324e+07 -1.78583e+07 2.60846e-10 9.14936e+07 -2.32652e-09 -7.91861e+06)
(-5.21931e+07 -1.99103e+07 7.34062e-10 9.09542e+07 1.00198e-10 -7.91861e+06)
(-5.15953e+07 -2.1946e+07 2.5622e-09 9.03564e+07 2.75464e-09 -7.91861e+06)
(-5.09397e+07 -2.39639e+07 -1.45076e-09 8.97008e+07 -2.40407e-10 -7.91861e+06)
(-5.02267e+07 -2.59622e+07 -4.06343e-10 8.89878e+07 2.30547e-09 -7.91861e+06)
(-4.94569e+07 -2.79393e+07 -1.85646e-11 8.82181e+07 -3.62386e-12 -7.91861e+06)
(-4.8631e+07 -2.98936e+07 -2.42072e-10 8.73921e+07 -2.44294e-09 -7.91861e+06)
(-4.77496e+07 -3.18236e+07 0 8.65108e+07 0 -7.91861e+06)
(-4.68135e+07 -3.37276e+07 -7.27902e-10 8.55746e+07 -1.74754e-10 -7.91861e+06)
(-4.58234e+07 -3.56041e+07 0 8.45845e+07 0 -7.91861e+06)
(-4.47801e+07 -3.74515e+07 2.62381e-09 8.35412e+07 -4.14051e-09 -7.91861e+06)
(-4.36845e+07 -3.92684e+07 1.42466e-09 8.24456e+07 4.07292e-10 -7.91861e+06)
(-4.25374e+07 -4.10533e+07 -2.78995e-09 8.12985e+07 4.04913e-09 -7.91861e+06)
(-4.13398e+07 -4.28047e+07 6.85783e-10 8.01009e+07 -2.23841e-09 -7.91861e+06)
(-4.00927e+07 -4.45211e+07 -1.40261e-09 7.88538e+07 -4.66833e-10 -7.91861e+06)
(-3.87971e+07 -4.62013e+07 -2.24868e-09 7.75582e+07 4.1743e-09 -7.91861e+06)
(-3.74541e+07 -4.78438e+07 6.85468e-10 7.62152e+07 2.50106e-10 -7.91861e+06)
(-3.60647e+07 -4.94473e+07 1.52963e-09 7.48258e+07 -1.92226e-09 -7.91861e+06)
(-3.463e+07 -5.10104e+07 6.83249e-10 7.33912e+07 2.71647e-10 -7.91861e+06)
(-3.31514e+07 -5.25319e+07 1.3586e-09 7.19125e+07 5.62751e-10 -7.91861e+06)
(-3.16298e+07 -5.40106e+07 -6.87442e-10 7.03909e+07 -2.96318e-10 -7.91861e+06)
(-3.00667e+07 -5.54452e+07 1.21516e-11 6.88278e+07 5.44495e-12 -7.91861e+06)
(-2.84632e+07 -5.68346e+07 -9.79087e-10 6.72244e+07 2.12643e-09 -7.91861e+06)
(-2.68207e+07 -5.81777e+07 -5.04226e-12 6.55819e+07 -2.43456e-12 -7.91861e+06)
(-2.51406e+07 -5.94733e+07 1.69143e-11 6.39017e+07 8.46666e-12 -7.91861e+06)
(-2.34241e+07 -6.07204e+07 -1.73878e-09 6.21852e+07 1.73537e-09 -7.91861e+06)
(-2.16727e+07 -6.19179e+07 1.75845e-09 6.04338e+07 -1.71301e-09 -7.91861e+06)
(-1.98878e+07 -6.3065e+07 1.14483e-09 5.8649e+07 -2.04198e-09 -7.91861e+06)
(-1.80709e+07 -6.41606e+07 1.15747e-09 5.68321e+07 -2.03485e-09 -7.91861e+06)
(-1.62235e+07 -6.5204e+07 4.81542e-12 5.49846e+07 2.85711e-12 -7.91861e+06)
(-1.4347e+07 -6.61941e+07 -3.71152e-09 5.31081e+07 3.21673e-09 -7.91861e+06)
(-1.2443e+07 -6.71302e+07 1.23882e-09 5.12041e+07 -1.9864e-09 -7.91861e+06)
(-1.05131e+07 -6.80116e+07 6.08838e-11 4.92742e+07 -2.7559e-09 -7.91861e+06)
(-8.55872e+06 -6.88375e+07 -1.31537e-09 4.73198e+07 1.93652e-09 -7.91861e+06)
(-6.5816e+06 -6.96073e+07 0 4.53427e+07 0 -7.91861e+06)
(-4.58331e+06 -7.03202e+07 -1.58919e-10 4.33444e+07 2.76503e-09 -7.91861e+06)
(-2.56547e+06 -7.09759e+07 -4.50626e-12 4.13266e+07 -3.3234e-12 -7.91861e+06)
(-529725 -7.15736e+07 4.36164e-09 3.92908e+07 3.73893e-10 -7.91861e+06)
(1.52225e+06 -7.2113e+07 -1.43527e-09 3.72389e+07 1.84941e-09 -7.91861e+06)
(3.5888e+06 -7.25936e+07 1.14066e-09 3.51723e+07 9.19204e-10 -7.91861e+06)
(5.66823e+06 -7.30149e+07 1.14629e-09 3.30929e+07 9.51052e-10 -7.91861e+06)
(7.75883e+06 -7.33767e+07 -1.12246e-09 3.10023e+07 -9.58675e-10 -7.91861e+06)
(9.85892e+06 -7.36786e+07 2.10495e-09 2.89022e+07 -1.26651e-09 -7.91861e+06)
(1.19668e+07 -7.39205e+07 5.45239e-10 2.67943e+07 4.9329e-10 -7.91861e+06)