/*--------------------------------*- C++ -*----------------------------------*\
| =========                 |                                                 |
| \\      /  F ield         | OpenFOAM: The Open Source CFD Toolbox           |
|  \\    /   O peration     | Version:  2312                                  |
|   \\  /    A nd           | Website:  www.openfoam.com                      |
|    \\/     M anipulation  |                                                 |
\*---------------------------------------------------------------------------*/
FoamFile
{
    version     2.0;
    format      ascii;
    arch        "LSB;label=32;scalar=64";
    class       volVectorField;
    location    "100";
    object      D;
}
// * * * * * * * * * * * * * * * * * * * * * * * * * * * * * * * * * * * * * //

dimensions      [0 1 0 0 0 0 0];

internalField   nonuniform List<vector> 
12870
(
(6.54589 0.0467383 0)
(6.54455 0.140205 0)
(6.54188 0.233644 0)
(6.53788 0.327035 0)
(6.53254 0.420359 0)
(6.52588 0.513598 0)
(6.51788 0.606731 0)
(6.50855 0.699741 0)
(6.49789 0.792609 0)
(6.48591 0.885314 0)
(6.47261 0.97784 0)
(6.45799 1.07017 0)
(6.44205 1.16227 0)
(6.42479 1.25414 0)
(6.40623 1.34576 0)
(6.38636 1.4371 0)
(6.36519 1.52815 0)
(6.34272 1.61888 0)
(6.31895 1.70929 0)
(6.2939 1.79934 0)
(6.26757 1.88903 0)
(6.23995 1.97834 0)
(6.21107 2.06724 0)
(6.18091 2.15572 0)
(6.1495 2.24376 0)
(6.11683 2.33134 0)
(6.08292 2.41845 0)
(6.04777 2.50507 0)
(6.01138 2.59117 0)
(5.97377 2.67675 0)
(5.93493 2.76177 0)
(5.89489 2.84624 0)
(5.85365 2.93013 0)
(5.81121 3.01342 0)
(5.76759 3.09609 0)
(5.72279 3.17813 0)
(5.67682 3.25953 0)
(5.6297 3.34026 0)
(5.58143 3.4203 0)
(5.53202 3.49966 0)
(5.48148 3.57829 0)
(5.42983 3.6562 0)
(5.37707 3.73336 0)
(5.32321 3.80976 0)
(5.26826 3.88539 0)
(5.21224 3.96022 0)
(5.15516 4.03424 0)
(5.09703 4.10745 0)
(5.03786 4.17981 0)
(4.97766 4.25132 0)
(4.91645 4.32197 0)
(4.85423 4.39173 0)
(4.79102 4.4606 0)
(4.72684 4.52856 0)
(4.66169 4.59559 0)
(4.59559 4.66169 0)
(4.52856 4.72684 0)
(4.4606 4.79102 0)
(4.39173 4.85423 0)
(4.32197 4.91645 0)
(4.25132 4.97766 0)
(4.17981 5.03786 0)
(4.10745 5.09703 0)
(4.03424 5.15516 0)
(3.96022 5.21224 0)
(3.88539 5.26826 0)
(3.80976 5.32321 0)
(3.73336 5.37707 0)
(3.6562 5.42983 0)
(3.57829 5.48148 0)
(3.49966 5.53202 0)
(3.4203 5.58143 0)
(3.34026 5.6297 0)
(3.25953 5.67682 0)
(3.17813 5.72279 0)
(3.09609 5.76759 0)
(3.01342 5.81121 0)
(2.93013 5.85365 0)
(2.84624 5.89489 0)
(2.76177 5.93493 0)
(2.67675 5.97377 0)
(2.59117 6.01138 0)
(2.50507 6.04777 0)
(2.41845 6.08292 0)
(2.33134 6.11683 0)
(2.24376 6.1495 0)
(2.15572 6.18091 0)
(2.06724 6.21107 0)
(1.97834 6.23995 0)
(1.88903 6.26757 0)
(1.79934 6.2939 0)
(1.70929 6.31895 0)
(1.61888 6.34272 0)
(1.52815 6.36519 0)
(1.4371 6.38636 0)
(1.34576 6.40623 0)
(1.25414 6.42479 0)
(1.16227 6.44205 0)
(1.07017 6.45799 0)
(0.97784 6.47261 0)
(0.885314 6.48591 0)
(0.792609 6.49789 0)
(0.699741 6.50855 0)
(0.606731 6.51788 0)
(0.513598 6.52588 0)
(0.420359 6.53254 0)
(0.327035 6.53788 0)
(0.233644 6.54188 0)
(0.140205 6.54455 0)
(0.0467383 6.54589 0)
(6.52011 0.0465543 0)
(6.51878 0.139653 0)
(6.51612 0.232724 0)
(6.51214 0.325747 0)
(6.50682 0.418704 0)
(6.50018 0.511575 0)
(6.49221 0.604342 0)
(6.48292 0.696986 0)
(6.47231 0.789488 0)
(6.46037 0.881828 0)
(6.44712 0.973989 0)
(6.43256 1.06595 0)
(6.41668 1.1577 0)
(6.39949 1.24921 0)
(6.381 1.34046 0)
(6.36121 1.43144 0)
(6.34012 1.52213 0)
(6.31774 1.61251 0)
(6.29407 1.70256 0)
(6.26912 1.79226 0)
(6.24289 1.8816 0)
(6.21538 1.97055 0)
(6.18661 2.0591 0)
(6.15658 2.14723 0)
(6.12529 2.23493 0)
(6.09275 2.32216 0)
(6.05897 2.40893 0)
(6.02395 2.4952 0)
(5.98771 2.58097 0)
(5.95024 2.66621 0)
(5.91156 2.7509 0)
(5.87168 2.83503 0)
(5.8306 2.91859 0)
(5.78833 3.00155 0)
(5.74488 3.0839 0)
(5.70026 3.16562 0)
(5.65447 3.24669 0)
(5.60753 3.3271 0)
(5.55945 3.40684 0)
(5.51024 3.48588 0)
(5.4599 3.5642 0)
(5.40845 3.6418 0)
(5.35589 3.71866 0)
(5.30225 3.79476 0)
(5.24752 3.87009 0)
(5.19172 3.94463 0)
(5.13486 4.01836 0)
(5.07696 4.09127 0)
(5.01802 4.16335 0)
(4.95806 4.23458 0)
(4.89709 4.30495 0)
(4.83511 4.37444 0)
(4.77216 4.44304 0)
(4.70823 4.51073 0)
(4.64333 4.5775 0)
(4.5775 4.64333 0)
(4.51073 4.70823 0)
(4.44304 4.77216 0)
(4.37444 4.83511 0)
(4.30495 4.89709 0)
(4.23458 4.95806 0)
(4.16335 5.01802 0)
(4.09127 5.07696 0)
(4.01836 5.13486 0)
(3.94463 5.19172 0)
(3.87009 5.24752 0)
(3.79476 5.30225 0)
(3.71866 5.35589 0)
(3.6418 5.40845 0)
(3.5642 5.4599 0)
(3.48588 5.51024 0)
(3.40684 5.55945 0)
(3.3271 5.60753 0)
(3.24669 5.65447 0)
(3.16562 5.70025 0)
(3.0839 5.74488 0)
(3.00155 5.78833 0)
(2.91859 5.8306 0)
(2.83503 5.87168 0)
(2.7509 5.91156 0)
(2.66621 5.95024 0)
(2.58097 5.98771 0)
(2.4952 6.02395 0)
(2.40893 6.05897 0)
(2.32216 6.09275 0)
(2.23493 6.12529 0)
(2.14723 6.15658 0)
(2.0591 6.18661 0)
(1.97055 6.21538 0)
(1.8816 6.24289 0)
(1.79226 6.26912 0)
(1.70256 6.29407 0)
(1.61251 6.31774 0)
(1.52213 6.34012 0)
(1.43144 6.36121 0)
(1.34046 6.381 0)
(1.24921 6.39949 0)
(1.1577 6.41668 0)
(1.06595 6.43256 0)
(0.973989 6.44712 0)
(0.881828 6.46037 0)
(0.789488 6.47231 0)
(0.696986 6.48292 0)
(0.604342 6.49221 0)
(0.511575 6.50018 0)
(0.418704 6.50682 0)
(0.325747 6.51214 0)
(0.232724 6.51612 0)
(0.139653 6.51878 0)
(0.0465543 6.52011 0)
(6.49498 0.0463748 0)
(6.49366 0.139115 0)
(6.49101 0.231827 0)
(6.48703 0.324491 0)
(6.48174 0.41709 0)
(6.47512 0.509603 0)
(6.46719 0.602013 0)
(6.45793 0.694299 0)
(6.44736 0.786444 0)
(6.43547 0.878429 0)
(6.42227 0.970235 0)
(6.40776 1.06184 0)
(6.39195 1.15323 0)
(6.37483 1.24439 0)
(6.35641 1.33529 0)
(6.33669 1.42592 0)
(6.31568 1.51626 0)
(6.29339 1.60629 0)
(6.26981 1.69599 0)
(6.24495 1.78535 0)
(6.21882 1.87434 0)
(6.19142 1.96295 0)
(6.16276 2.05116 0)
(6.13284 2.13896 0)
(6.10168 2.22631 0)
(6.06926 2.31321 0)
(6.03561 2.39964 0)
(6.00073 2.48558 0)
(5.96463 2.57102 0)
(5.92731 2.65593 0)
(5.88878 2.7403 0)
(5.84905 2.82411 0)
(5.80812 2.90734 0)
(5.76602 2.98998 0)
(5.72273 3.07201 0)
(5.67828 3.15341 0)
(5.63267 3.23418 0)
(5.58592 3.31428 0)
(5.53802 3.3937 0)
(5.489 3.47244 0)
(5.43885 3.55046 0)
(5.3876 3.62777 0)
(5.33525 3.70433 0)
(5.28181 3.78014 0)
(5.22729 3.85517 0)
(5.17171 3.92942 0)
(5.11507 4.00287 0)
(5.05739 4.0755 0)
(4.99868 4.1473 0)
(4.93895 4.21826 0)
(4.87821 4.28836 0)
(4.81648 4.35758 0)
(4.75376 4.42591 0)
(4.69008 4.49334 0)
(4.62544 4.55985 0)
(4.55985 4.62544 0)
(4.49334 4.69008 0)
(4.42591 4.75376 0)
(4.35758 4.81648 0)
(4.28836 4.87821 0)
(4.21826 4.93895 0)
(4.1473 4.99868 0)
(4.0755 5.05739 0)
(4.00287 5.11507 0)
(3.92942 5.17171 0)
(3.85517 5.22729 0)
(3.78014 5.28181 0)
(3.70433 5.33525 0)
(3.62777 5.3876 0)
(3.55046 5.43885 0)
(3.47244 5.489 0)
(3.3937 5.53802 0)
(3.31428 5.58592 0)
(3.23418 5.63267 0)
(3.15341 5.67828 0)
(3.07201 5.72273 0)
(2.98998 5.76602 0)
(2.90734 5.80812 0)
(2.82411 5.84905 0)
(2.7403 5.88878 0)
(2.65593 5.92731 0)
(2.57102 5.96463 0)
(2.48558 6.00073 0)
(2.39964 6.03561 0)
(2.31321 6.06926 0)
(2.22631 6.10168 0)
(2.13896 6.13284 0)
(2.05116 6.16276 0)
(1.96295 6.19142 0)
(1.87434 6.21882 0)
(1.78535 6.24495 0)
(1.69599 6.26981 0)
(1.60629 6.29339 0)
(1.51626 6.31568 0)
(1.42592 6.33669 0)
(1.33529 6.35641 0)
(1.24439 6.37483 0)
(1.15323 6.39195 0)
(1.06184 6.40776 0)
(0.970235 6.42227 0)
(0.878429 6.43547 0)
(0.786444 6.44736 0)
(0.694299 6.45793 0)
(0.602013 6.46719 0)
(0.509603 6.47512 0)
(0.41709 6.48174 0)
(0.324491 6.48703 0)
(0.231827 6.49101 0)
(0.139115 6.49366 0)
(0.0463748 6.49498 0)
(6.47009 0.0461971 0)
(6.46877 0.138582 0)
(6.46613 0.230938 0)
(6.46217 0.323248 0)
(6.4569 0.415491 0)
(6.45031 0.50765 0)
(6.4424 0.599706 0)
(6.43318 0.691639 0)
(6.42265 0.783431 0)
(6.41081 0.875063 0)
(6.39766 0.966517 0)
(6.38321 1.05777 0)
(6.36745 1.14881 0)
(6.3504 1.23962 0)
(6.33205 1.33018 0)
(6.31241 1.42046 0)
(6.29148 1.51045 0)
(6.26927 1.60014 0)
(6.24578 1.68949 0)
(6.22102 1.77851 0)
(6.19499 1.86716 0)
(6.1677 1.95543 0)
(6.13915 2.0433 0)
(6.10934 2.13076 0)
(6.07829 2.21778 0)
(6.046 2.30435 0)
(6.01248 2.39045 0)
(5.97774 2.47606 0)
(5.94177 2.56117 0)
(5.90459 2.64575 0)
(5.86621 2.72979 0)
(5.82663 2.81328 0)
(5.78587 2.8962 0)
(5.74392 2.97852 0)
(5.7008 3.06024 0)
(5.65652 3.14133 0)
(5.61109 3.22178 0)
(5.56451 3.30158 0)
(5.5168 3.3807 0)
(5.46796 3.45913 0)
(5.41801 3.53686 0)
(5.36695 3.61386 0)
(5.3148 3.69013 0)
(5.26157 3.76565 0)
(5.20726 3.8404 0)
(5.15189 3.91436 0)
(5.09547 3.98753 0)
(5.03801 4.05988 0)
(4.97952 4.13141 0)
(4.92002 4.20209 0)
(4.85951 4.27192 0)
(4.79802 4.34088 0)
(4.73554 4.40895 0)
(4.6721 4.47612 0)
(4.60771 4.54238 0)
(4.54238 4.60771 0)
(4.47612 4.6721 0)
(4.40895 4.73554 0)
(4.34088 4.79802 0)
(4.27192 4.85951 0)
(4.20209 4.92002 0)
(4.13141 4.97952 0)
(4.05988 5.03801 0)
(3.98753 5.09547 0)
(3.91436 5.15189 0)
(3.8404 5.20726 0)
(3.76565 5.26157 0)
(3.69013 5.3148 0)
(3.61386 5.36695 0)
(3.53686 5.41801 0)
(3.45913 5.46796 0)
(3.3807 5.5168 0)
(3.30158 5.56451 0)
(3.22178 5.61109 0)
(3.14133 5.65652 0)
(3.06024 5.7008 0)
(2.97852 5.74392 0)
(2.8962 5.78587 0)
(2.81328 5.82663 0)
(2.72979 5.86621 0)
(2.64575 5.90459 0)
(2.56117 5.94177 0)
(2.47606 5.97774 0)
(2.39045 6.01248 0)
(2.30435 6.046 0)
(2.21778 6.07829 0)
(2.13076 6.10934 0)
(2.0433 6.13915 0)
(1.95543 6.1677 0)
(1.86716 6.19499 0)
(1.77851 6.22102 0)
(1.68949 6.24578 0)
(1.60014 6.26927 0)
(1.51045 6.29148 0)
(1.42046 6.31241 0)
(1.33018 6.33205 0)
(1.23962 6.3504 0)
(1.14881 6.36745 0)
(1.05777 6.38321 0)
(0.966517 6.39766 0)
(0.875063 6.41081 0)
(0.783431 6.42265 0)
(0.691639 6.43318 0)
(0.599706 6.4424 0)
(0.50765 6.45031 0)
(0.415491 6.4569 0)
(0.323248 6.46217 0)
(0.230938 6.46613 0)
(0.138582 6.46877 0)
(0.0461971 6.47009 0)
(6.44568 0.0460228 0)
(6.44436 0.138059 0)
(6.44173 0.230067 0)
(6.43779 0.322028 0)
(6.43254 0.413924 0)
(6.42597 0.505735 0)
(6.41809 0.597443 0)
(6.40891 0.689029 0)
(6.39842 0.780475 0)
(6.38662 0.871761 0)
(6.37352 0.96287 0)
(6.35912 1.05378 0)
(6.34342 1.14448 0)
(6.32644 1.23494 0)
(6.30816 1.32516 0)
(6.28859 1.4151 0)
(6.26774 1.50475 0)
(6.24562 1.5941 0)
(6.22222 1.68312 0)
(6.19755 1.7718 0)
(6.17162 1.86012 0)
(6.14442 1.94805 0)
(6.11598 2.03559 0)
(6.08629 2.12272 0)
(6.05536 2.20941 0)
(6.02319 2.29565 0)
(5.9898 2.38143 0)
(5.95518 2.46672 0)
(5.91935 2.5515 0)
(5.88231 2.63577 0)
(5.84408 2.71949 0)
(5.80465 2.80267 0)
(5.76403 2.88527 0)
(5.72225 2.96728 0)
(5.67929 3.04869 0)
(5.63518 3.12948 0)
(5.58992 3.20963 0)
(5.54352 3.28912 0)
(5.49598 3.36794 0)
(5.44733 3.44608 0)
(5.39757 3.52351 0)
(5.3467 3.60023 0)
(5.29475 3.67621 0)
(5.24171 3.75144 0)
(5.18761 3.82591 0)
(5.13245 3.89959 0)
(5.07624 3.97248 0)
(5.019 4.04457 0)
(4.96073 4.11582 0)
(4.90146 4.18624 0)
(4.84118 4.2558 0)
(4.77991 4.3245 0)
(4.71768 4.39231 0)
(4.65447 4.45923 0)
(4.59032 4.52524 0)
(4.52524 4.59032 0)
(4.45923 4.65447 0)
(4.39231 4.71768 0)
(4.3245 4.77991 0)
(4.2558 4.84118 0)
(4.18624 4.90146 0)
(4.11582 4.96073 0)
(4.04457 5.019 0)
(3.97248 5.07624 0)
(3.89959 5.13245 0)
(3.82591 5.18761 0)
(3.75144 5.24171 0)
(3.67621 5.29475 0)
(3.60023 5.3467 0)
(3.52351 5.39757 0)
(3.44608 5.44733 0)
(3.36794 5.49598 0)
(3.28912 5.54352 0)
(3.20963 5.58992 0)
(3.12948 5.63518 0)
(3.04869 5.67929 0)
(2.96728 5.72225 0)
(2.88527 5.76403 0)
(2.80267 5.80465 0)
(2.71949 5.84408 0)
(2.63577 5.88231 0)
(2.5515 5.91935 0)
(2.46672 5.95518 0)
(2.38143 5.9898 0)
(2.29565 6.02319 0)
(2.20941 6.05536 0)
(2.12272 6.08629 0)
(2.03559 6.11598 0)
(1.94805 6.14442 0)
(1.86012 6.17162 0)
(1.7718 6.19755 0)
(1.68312 6.22222 0)
(1.5941 6.24562 0)
(1.50475 6.26774 0)
(1.4151 6.28859 0)
(1.32516 6.30816 0)
(1.23494 6.32644 0)
(1.14448 6.34342 0)
(1.05378 6.35912 0)
(0.96287 6.37352 0)
(0.871761 6.38662 0)
(0.780475 6.39842 0)
(0.689029 6.40891 0)
(0.597443 6.41809 0)
(0.505735 6.42597 0)
(0.413924 6.43254 0)
(0.322028 6.43779 0)
(0.230067 6.44173 0)
(0.138059 6.44436 0)
(0.0460228 6.44568 0)
(6.4216 0.0458509 0)
(6.42029 0.137543 0)
(6.41767 0.229208 0)
(6.41374 0.320825 0)
(6.40851 0.412377 0)
(6.40196 0.503845 0)
(6.39412 0.595211 0)
(6.38496 0.686455 0)
(6.37451 0.777559 0)
(6.36276 0.868504 0)
(6.34971 0.959273 0)
(6.33536 1.04985 0)
(6.31973 1.1402 0)
(6.3028 1.23033 0)
(6.28459 1.32021 0)
(6.2651 1.40981 0)
(6.24433 1.49913 0)
(6.22228 1.58814 0)
(6.19897 1.67683 0)
(6.17439 1.76518 0)
(6.14856 1.85317 0)
(6.12147 1.94078 0)
(6.09313 2.02799 0)
(6.06355 2.11479 0)
(6.03274 2.20116 0)
(6.00069 2.28708 0)
(5.96742 2.37253 0)
(5.93293 2.4575 0)
(5.89724 2.54197 0)
(5.86034 2.62592 0)
(5.82224 2.70933 0)
(5.78296 2.7922 0)
(5.7425 2.87449 0)
(5.70087 2.9562 0)
(5.65807 3.0373 0)
(5.61413 3.11779 0)
(5.56903 3.19763 0)
(5.5228 3.27683 0)
(5.47545 3.35536 0)
(5.42698 3.4332 0)
(5.3774 3.51035 0)
(5.32673 3.58678 0)
(5.27497 3.66247 0)
(5.22213 3.73743 0)
(5.16823 3.81161 0)
(5.11327 3.88502 0)
(5.05728 3.95764 0)
(5.00025 4.02945 0)
(4.9422 4.10045 0)
(4.88314 4.1706 0)
(4.82309 4.2399 0)
(4.76206 4.30834 0)
(4.70005 4.3759 0)
(4.63709 4.44257 0)
(4.57318 4.50833 0)
(4.50833 4.57318 0)
(4.44257 4.63709 0)
(4.3759 4.70005 0)
(4.30834 4.76206 0)
(4.2399 4.82309 0)
(4.1706 4.88314 0)
(4.10045 4.9422 0)
(4.02946 5.00025 0)
(3.95764 5.05728 0)
(3.88502 5.11327 0)
(3.81161 5.16823 0)
(3.73743 5.22213 0)
(3.66247 5.27497 0)
(3.58678 5.32673 0)
(3.51035 5.3774 0)
(3.4332 5.42698 0)
(3.35536 5.47545 0)
(3.27683 5.5228 0)
(3.19763 5.56903 0)
(3.11779 5.61413 0)
(3.0373 5.65807 0)
(2.9562 5.70087 0)
(2.87449 5.7425 0)
(2.7922 5.78296 0)
(2.70933 5.82224 0)
(2.62592 5.86034 0)
(2.54197 5.89724 0)
(2.4575 5.93293 0)
(2.37253 5.96742 0)
(2.28708 6.00069 0)
(2.20116 6.03274 0)
(2.11479 6.06355 0)
(2.02799 6.09313 0)
(1.94078 6.12147 0)
(1.85317 6.14856 0)
(1.76518 6.17439 0)
(1.67683 6.19897 0)
(1.58814 6.22228 0)
(1.49913 6.24433 0)
(1.40981 6.2651 0)
(1.32021 6.28459 0)
(1.23033 6.3028 0)
(1.1402 6.31973 0)
(1.04985 6.33536 0)
(0.959273 6.34971 0)
(0.868504 6.36276 0)
(0.777559 6.37451 0)
(0.686455 6.38496 0)
(0.595211 6.39412 0)
(0.503845 6.40196 0)
(0.412377 6.40851 0)
(0.320825 6.41374 0)
(0.229208 6.41767 0)
(0.137543 6.42029 0)
(0.0458509 6.4216 0)
(6.39793 0.0456819 0)
(6.39662 0.137036 0)
(6.39401 0.228363 0)
(6.3901 0.319643 0)
(6.38489 0.410857 0)
(6.37837 0.501988 0)
(6.37055 0.593017 0)
(6.36143 0.683925 0)
(6.35102 0.774693 0)
(6.33931 0.865303 0)
(6.3263 0.955737 0)
(6.31201 1.04598 0)
(6.29643 1.136 0)
(6.27957 1.2258 0)
(6.26143 1.31534 0)
(6.242 1.40462 0)
(6.22131 1.4936 0)
(6.19935 1.58229 0)
(6.17612 1.67065 0)
(6.15164 1.75867 0)
(6.1259 1.84634 0)
(6.09891 1.93362 0)
(6.07067 2.02051 0)
(6.0412 2.10699 0)
(6.0105 2.19304 0)
(5.97857 2.27865 0)
(5.94543 2.36379 0)
(5.91107 2.44844 0)
(5.8755 2.5326 0)
(5.83874 2.61624 0)
(5.80078 2.69935 0)
(5.76165 2.78191 0)
(5.72133 2.8639 0)
(5.67986 2.9453 0)
(5.63722 3.02611 0)
(5.59343 3.10629 0)
(5.54851 3.18585 0)
(5.50245 3.26475 0)
(5.45527 3.34299 0)
(5.40698 3.42055 0)
(5.35758 3.49741 0)
(5.30709 3.57356 0)
(5.25552 3.64898 0)
(5.20288 3.72365 0)
(5.14918 3.79757 0)
(5.09443 3.87071 0)
(5.03864 3.94306 0)
(4.98182 4.0146 0)
(4.92398 4.08533 0)
(4.86515 4.15523 0)
(4.80532 4.22428 0)
(4.74451 4.29246 0)
(4.68273 4.35977 0)
(4.61999 4.4262 0)
(4.55632 4.49172 0)
(4.49172 4.55632 0)
(4.4262 4.61999 0)
(4.35977 4.68273 0)
(4.29246 4.74451 0)
(4.22428 4.80532 0)
(4.15523 4.86515 0)
(4.08533 4.92398 0)
(4.0146 4.98182 0)
(3.94306 5.03864 0)
(3.87071 5.09443 0)
(3.79757 5.14918 0)
(3.72365 5.20288 0)
(3.64898 5.25552 0)
(3.57356 5.30709 0)
(3.49741 5.35758 0)
(3.42055 5.40698 0)
(3.34299 5.45527 0)
(3.26475 5.50245 0)
(3.18585 5.54851 0)
(3.10629 5.59343 0)
(3.02611 5.63722 0)
(2.9453 5.67986 0)
(2.8639 5.72133 0)
(2.78191 5.76165 0)
(2.69935 5.80078 0)
(2.61624 5.83874 0)
(2.5326 5.8755 0)
(2.44844 5.91107 0)
(2.36379 5.94543 0)
(2.27865 5.97857 0)
(2.19304 6.0105 0)
(2.10699 6.0412 0)
(2.02051 6.07067 0)
(1.93362 6.09891 0)
(1.84634 6.1259 0)
(1.75867 6.15164 0)
(1.67065 6.17612 0)
(1.58229 6.19935 0)
(1.4936 6.22131 0)
(1.40462 6.242 0)
(1.31534 6.26143 0)
(1.2258 6.27957 0)
(1.136 6.29643 0)
(1.04598 6.31201 0)
(0.955737 6.3263 0)
(0.865303 6.33931 0)
(0.774693 6.35102 0)
(0.683925 6.36143 0)
(0.593017 6.37055 0)
(0.501988 6.37837 0)
(0.410857 6.38489 0)
(0.319643 6.3901 0)
(0.228363 6.39401 0)
(0.137036 6.39662 0)
(0.0456819 6.39793 0)
(6.37462 0.0455154 0)
(6.37332 0.136537 0)
(6.37072 0.227531 0)
(6.36682 0.318478 0)
(6.36162 0.409361 0)
(6.35513 0.50016 0)
(6.34734 0.590857 0)
(6.33826 0.681433 0)
(6.32788 0.771871 0)
(6.31621 0.862151 0)
(6.30326 0.952255 0)
(6.28902 1.04217 0)
(6.27349 1.13186 0)
(6.25669 1.22133 0)
(6.23861 1.31055 0)
(6.21926 1.3995 0)
(6.19865 1.48816 0)
(6.17676 1.57652 0)
(6.15362 1.66457 0)
(6.12923 1.75227 0)
(6.10358 1.83961 0)
(6.07669 1.92658 0)
(6.04856 2.01315 0)
(6.01919 2.09932 0)
(5.9886 2.18506 0)
(5.95679 2.27035 0)
(5.92377 2.35518 0)
(5.88953 2.43952 0)
(5.85409 2.52337 0)
(5.81747 2.60671 0)
(5.77965 2.68951 0)
(5.74066 2.77177 0)
(5.70049 2.85346 0)
(5.65916 2.93457 0)
(5.61668 3.01508 0)
(5.57306 3.09498 0)
(5.52829 3.17424 0)
(5.4824 3.25286 0)
(5.43539 3.33081 0)
(5.38728 3.40809 0)
(5.33806 3.48467 0)
(5.28776 3.56054 0)
(5.23638 3.63568 0)
(5.18393 3.71008 0)
(5.13042 3.78373 0)
(5.07587 3.8566 0)
(5.02028 3.92869 0)
(4.96367 3.99998 0)
(4.90605 4.07045 0)
(4.84742 4.14009 0)
(4.78781 4.20889 0)
(4.72722 4.27682 0)
(4.66567 4.34389 0)
(4.60316 4.41007 0)
(4.53972 4.47535 0)
(4.47535 4.53972 0)
(4.41007 4.60316 0)
(4.34389 4.66567 0)
(4.27682 4.72722 0)
(4.20889 4.78781 0)
(4.14009 4.84742 0)
(4.07045 4.90605 0)
(3.99998 4.96367 0)
(3.92869 5.02028 0)
(3.8566 5.07587 0)
(3.78373 5.13042 0)
(3.71008 5.18393 0)
(3.63568 5.23638 0)
(3.56054 5.28776 0)
(3.48467 5.33806 0)
(3.40809 5.38728 0)
(3.33081 5.43539 0)
(3.25286 5.4824 0)
(3.17424 5.52829 0)
(3.09498 5.57306 0)
(3.01508 5.61668 0)
(2.93457 5.65916 0)
(2.85346 5.70049 0)
(2.77177 5.74066 0)
(2.68951 5.77965 0)
(2.60671 5.81747 0)
(2.52337 5.85409 0)
(2.43952 5.88953 0)
(2.35518 5.92377 0)
(2.27035 5.95679 0)
(2.18506 5.9886 0)
(2.09932 6.01919 0)
(2.01315 6.04856 0)
(1.92658 6.07669 0)
(1.83961 6.10358 0)
(1.75227 6.12923 0)
(1.66457 6.15362 0)
(1.57652 6.17676 0)
(1.48816 6.19865 0)
(1.3995 6.21926 0)
(1.31055 6.23861 0)
(1.22133 6.25669 0)
(1.13186 6.27349 0)
(1.04217 6.28902 0)
(0.952255 6.30326 0)
(0.862151 6.31621 0)
(0.771871 6.32788 0)
(0.681433 6.33826 0)
(0.590857 6.34734 0)
(0.50016 6.35513 0)
(0.409361 6.36162 0)
(0.318478 6.36682 0)
(0.227531 6.37072 0)
(0.136537 6.37332 0)
(0.0455154 6.37462 0)
(6.3517 0.0453518 0)
(6.3504 0.136046 0)
(6.34781 0.226713 0)
(6.34393 0.317333 0)
(6.33875 0.407889 0)
(6.33228 0.498361 0)
(6.32452 0.588732 0)
(6.31546 0.678983 0)
(6.30512 0.769095 0)
(6.2935 0.85905 0)
(6.28059 0.948831 0)
(6.2664 1.03842 0)
(6.25094 1.12779 0)
(6.23419 1.21694 0)
(6.21618 1.30583 0)
(6.1969 1.39447 0)
(6.17636 1.48281 0)
(6.15455 1.57086 0)
(6.13149 1.65858 0)
(6.10719 1.74596 0)
(6.08163 1.83299 0)
(6.05484 1.91965 0)
(6.02681 2.00591 0)
(5.99755 2.09177 0)
(5.96707 2.1772 0)
(5.93537 2.26218 0)
(5.90246 2.34671 0)
(5.86835 2.43075 0)
(5.83304 2.5143 0)
(5.79655 2.59734 0)
(5.75887 2.67984 0)
(5.72001 2.7618 0)
(5.67999 2.8432 0)
(5.63881 2.92402 0)
(5.59649 3.00424 0)
(5.55302 3.08385 0)
(5.50841 3.16283 0)
(5.46269 3.24116 0)
(5.41585 3.31884 0)
(5.36791 3.39583 0)
(5.31887 3.47214 0)
(5.26875 3.54774 0)
(5.21755 3.62261 0)
(5.16529 3.69674 0)
(5.11197 3.77012 0)
(5.05762 3.84274 0)
(5.00223 3.91456 0)
(4.94582 3.98559 0)
(4.8884 4.05581 0)
(4.82999 4.1252 0)
(4.77059 4.19375 0)
(4.71022 4.26145 0)
(4.64889 4.32827 0)
(4.58661 4.39421 0)
(4.5234 4.45926 0)
(4.45926 4.5234 0)
(4.39421 4.58661 0)
(4.32827 4.64889 0)
(4.26145 4.71022 0)
(4.19375 4.77059 0)
(4.1252 4.82999 0)
(4.05581 4.8884 0)
(3.98559 4.94582 0)
(3.91456 5.00223 0)
(3.84274 5.05762 0)
(3.77012 5.11197 0)
(3.69674 5.16529 0)
(3.62261 5.21755 0)
(3.54774 5.26875 0)
(3.47214 5.31887 0)
(3.39583 5.36791 0)
(3.31884 5.41585 0)
(3.24116 5.46269 0)
(3.16283 5.50841 0)
(3.08385 5.55302 0)
(3.00424 5.59649 0)
(2.92402 5.63881 0)
(2.8432 5.67999 0)
(2.7618 5.72001 0)
(2.67984 5.75887 0)
(2.59734 5.79655 0)
(2.5143 5.83304 0)
(2.43075 5.86835 0)
(2.34671 5.90246 0)
(2.26218 5.93537 0)
(2.1772 5.96707 0)
(2.09177 5.99755 0)
(2.00591 6.02681 0)
(1.91965 6.05484 0)
(1.83299 6.08163 0)
(1.74596 6.10719 0)
(1.65858 6.13149 0)
(1.57086 6.15455 0)
(1.48281 6.17636 0)
(1.39447 6.1969 0)
(1.30583 6.21618 0)
(1.21694 6.23419 0)
(1.12779 6.25094 0)
(1.03842 6.2664 0)
(0.948831 6.28059 0)
(0.85905 6.2935 0)
(0.769095 6.30512 0)
(0.678983 6.31546 0)
(0.588732 6.32452 0)
(0.498361 6.33228 0)
(0.407889 6.33875 0)
(0.317333 6.34393 0)
(0.226713 6.34781 0)
(0.136046 6.3504 0)
(0.0453518 6.3517 0)
(6.32914 0.0451907 0)
(6.32785 0.135563 0)
(6.32527 0.225907 0)
(6.3214 0.316206 0)
(6.31624 0.40644 0)
(6.30979 0.496591 0)
(6.30205 0.586641 0)
(6.29303 0.676571 0)
(6.28273 0.766364 0)
(6.27115 0.856 0)
(6.25829 0.945461 0)
(6.24415 1.03473 0)
(6.22873 1.12379 0)
(6.21205 1.21262 0)
(6.1941 1.3012 0)
(6.17489 1.38951 0)
(6.15442 1.47755 0)
(6.13269 1.56528 0)
(6.10972 1.65269 0)
(6.0855 1.73976 0)
(6.06003 1.82648 0)
(6.03333 1.91283 0)
(6.0054 1.99879 0)
(5.97625 2.08434 0)
(5.94588 2.16947 0)
(5.91429 2.25415 0)
(5.8815 2.33837 0)
(5.84751 2.42212 0)
(5.81233 2.50537 0)
(5.77596 2.58811 0)
(5.73841 2.67033 0)
(5.6997 2.752 0)
(5.65982 2.8331 0)
(5.61879 2.91363 0)
(5.57661 2.99357 0)
(5.53329 3.0729 0)
(5.48885 3.1516 0)
(5.44329 3.22965 0)
(5.39662 3.30705 0)
(5.34884 3.38377 0)
(5.29998 3.45981 0)
(5.25003 3.53514 0)
(5.19902 3.60974 0)
(5.14694 3.68361 0)
(5.09382 3.75673 0)
(5.03965 3.82909 0)
(4.98446 3.90066 0)
(4.92826 3.97144 0)
(4.87104 4.04141 0)
(4.81284 4.11055 0)
(4.75365 4.17886 0)
(4.69349 4.24631 0)
(4.63238 4.3129 0)
(4.57032 4.37861 0)
(4.50733 4.44342 0)
(4.44342 4.50733 0)
(4.37861 4.57032 0)
(4.3129 4.63238 0)
(4.24631 4.69349 0)
(4.17886 4.75365 0)
(4.11055 4.81284 0)
(4.04141 4.87104 0)
(3.97144 4.92826 0)
(3.90066 4.98446 0)
(3.82909 5.03965 0)
(3.75673 5.09382 0)
(3.68361 5.14694 0)
(3.60974 5.19902 0)
(3.53514 5.25003 0)
(3.45981 5.29998 0)
(3.38377 5.34884 0)
(3.30705 5.39662 0)
(3.22965 5.44329 0)
(3.1516 5.48885 0)
(3.0729 5.53329 0)
(2.99357 5.57661 0)
(2.91363 5.61879 0)
(2.8331 5.65982 0)
(2.752 5.6997 0)
(2.67033 5.73841 0)
(2.58811 5.77596 0)
(2.50537 5.81233 0)
(2.42212 5.84751 0)
(2.33837 5.8815 0)
(2.25415 5.91429 0)
(2.16947 5.94588 0)
(2.08434 5.97625 0)
(1.99879 6.0054 0)
(1.91283 6.03333 0)
(1.82648 6.06003 0)
(1.73976 6.0855 0)
(1.65269 6.10972 0)
(1.56528 6.13269 0)
(1.47755 6.15442 0)
(1.38951 6.17489 0)
(1.3012 6.1941 0)
(1.21262 6.21205 0)
(1.12379 6.22873 0)
(1.03473 6.24415 0)
(0.945461 6.25829 0)
(0.856 6.27115 0)
(0.766364 6.28273 0)
(0.676571 6.29303 0)
(0.586641 6.30205 0)
(0.496591 6.30979 0)
(0.40644 6.31624 0)
(0.316206 6.3214 0)
(0.225907 6.32527 0)
(0.135563 6.32785 0)
(0.0451907 6.32914 0)
(6.30695 0.0450323 0)
(6.30567 0.135088 0)
(6.30309 0.225116 0)
(6.29924 0.315098 0)
(6.2941 0.405015 0)
(6.28767 0.49485 0)
(6.27996 0.584585 0)
(6.27097 0.6742 0)
(6.26071 0.763677 0)
(6.24917 0.852999 0)
(6.23635 0.942147 0)
(6.22226 1.0311 0)
(6.2069 1.11985 0)
(6.19028 1.20837 0)
(6.17239 1.29664 0)
(6.15325 1.38464 0)
(6.13285 1.47237 0)
(6.1112 1.55979 0)
(6.0883 1.6469 0)
(6.06416 1.73367 0)
(6.03879 1.82008 0)
(6.01218 1.90613 0)
(5.98435 1.99178 0)
(5.9553 2.07703 0)
(5.92503 2.16186 0)
(5.89356 2.24625 0)
(5.86088 2.33017 0)
(5.82701 2.41363 0)
(5.79195 2.49659 0)
(5.75571 2.57904 0)
(5.7183 2.66097 0)
(5.67972 2.74235 0)
(5.63998 2.82317 0)
(5.59909 2.90342 0)
(5.55706 2.98308 0)
(5.5139 3.06212 0)
(5.46961 3.14055 0)
(5.42421 3.21833 0)
(5.3777 3.29546 0)
(5.33009 3.37191 0)
(5.2814 3.44768 0)
(5.23163 3.52274 0)
(5.18079 3.59709 0)
(5.1289 3.6707 0)
(5.07596 3.74357 0)
(5.02199 3.81567 0)
(4.96699 3.88699 0)
(4.91098 3.95752 0)
(4.85397 4.02724 0)
(4.79597 4.09614 0)
(4.73699 4.16421 0)
(4.67704 4.23143 0)
(4.61614 4.29778 0)
(4.5543 4.36326 0)
(4.49153 4.42785 0)
(4.42785 4.49153 0)
(4.36326 4.5543 0)
(4.29778 4.61614 0)
(4.23143 4.67704 0)
(4.16421 4.73699 0)
(4.09614 4.79597 0)
(4.02724 4.85397 0)
(3.95752 4.91098 0)
(3.88699 4.96699 0)
(3.81567 5.02199 0)
(3.74357 5.07596 0)
(3.6707 5.1289 0)
(3.59709 5.18079 0)
(3.52274 5.23163 0)
(3.44768 5.2814 0)
(3.37191 5.33009 0)
(3.29546 5.3777 0)
(3.21833 5.42421 0)
(3.14055 5.46961 0)
(3.06212 5.5139 0)
(2.98308 5.55706 0)
(2.90342 5.59909 0)
(2.82317 5.63998 0)
(2.74235 5.67972 0)
(2.66097 5.7183 0)
(2.57904 5.75571 0)
(2.49659 5.79195 0)
(2.41363 5.82701 0)
(2.33017 5.86088 0)
(2.24625 5.89356 0)
(2.16186 5.92503 0)
(2.07703 5.9553 0)
(1.99178 5.98435 0)
(1.90613 6.01218 0)
(1.82008 6.03879 0)
(1.73367 6.06416 0)
(1.6469 6.0883 0)
(1.55979 6.1112 0)
(1.47237 6.13285 0)
(1.38464 6.15325 0)
(1.29664 6.17239 0)
(1.20837 6.19028 0)
(1.11985 6.2069 0)
(1.0311 6.22226 0)
(0.942147 6.23635 0)
(0.852999 6.24917 0)
(0.763677 6.26071 0)
(0.6742 6.27097 0)
(0.584585 6.27996 0)
(0.49485 6.28767 0)
(0.405015 6.2941 0)
(0.315098 6.29924 0)
(0.225116 6.30309 0)
(0.135088 6.30567 0)
(0.0450323 6.30695 0)
(6.28513 0.0448765 0)
(6.28385 0.13462 0)
(6.28128 0.224337 0)
(6.27744 0.314007 0)
(6.27232 0.403614 0)
(6.26591 0.493138 0)
(6.25823 0.582562 0)
(6.24928 0.671867 0)
(6.23904 0.761035 0)
(6.22754 0.850047 0)
(6.21477 0.938887 0)
(6.20073 1.02753 0)
(6.18542 1.11597 0)
(6.16886 1.20418 0)
(6.15103 1.29215 0)
(6.13195 1.37985 0)
(6.11162 1.46727 0)
(6.09005 1.55439 0)
(6.06723 1.6412 0)
(6.04318 1.72767 0)
(6.01789 1.81378 0)
(5.99138 1.89953 0)
(5.96364 1.98489 0)
(5.93469 2.06985 0)
(5.90453 2.15438 0)
(5.87317 2.23847 0)
(5.8406 2.32211 0)
(5.80685 2.40528 0)
(5.77191 2.48795 0)
(5.7358 2.57012 0)
(5.69851 2.65176 0)
(5.66006 2.73286 0)
(5.62046 2.8134 0)
(5.57972 2.89337 0)
(5.53783 2.97275 0)
(5.49482 3.05153 0)
(5.45068 3.12968 0)
(5.40544 3.20719 0)
(5.35909 3.28405 0)
(5.31165 3.36024 0)
(5.26312 3.43575 0)
(5.21353 3.51055 0)
(5.16287 3.58464 0)
(5.11115 3.658 0)
(5.0584 3.73061 0)
(5.00461 3.80246 0)
(4.9498 3.87354 0)
(4.89399 3.94382 0)
(4.83717 4.0133 0)
(4.77937 4.08197 0)
(4.72059 4.1498 0)
(4.66086 4.21678 0)
(4.60017 4.28291 0)
(4.53854 4.34816 0)
(4.47599 4.41252 0)
(4.41252 4.47599 0)
(4.34816 4.53854 0)
(4.28291 4.60017 0)
(4.21678 4.66086 0)
(4.1498 4.72059 0)
(4.08197 4.77937 0)
(4.0133 4.83717 0)
(3.94382 4.89399 0)
(3.87354 4.9498 0)
(3.80246 5.00461 0)
(3.73061 5.0584 0)
(3.658 5.11115 0)
(3.58464 5.16287 0)
(3.51055 5.21353 0)
(3.43575 5.26312 0)
(3.36024 5.31165 0)
(3.28405 5.35909 0)
(3.20719 5.40544 0)
(3.12968 5.45068 0)
(3.05153 5.49482 0)
(2.97275 5.53783 0)
(2.89337 5.57972 0)
(2.8134 5.62046 0)
(2.73286 5.66006 0)
(2.65176 5.69851 0)
(2.57012 5.7358 0)
(2.48795 5.77191 0)
(2.40528 5.80685 0)
(2.32211 5.8406 0)
(2.23847 5.87317 0)
(2.15438 5.90453 0)
(2.06985 5.93469 0)
(1.98489 5.96364 0)
(1.89953 5.99138 0)
(1.81378 6.01789 0)
(1.72767 6.04318 0)
(1.6412 6.06723 0)
(1.55439 6.09005 0)
(1.46727 6.11162 0)
(1.37985 6.13195 0)
(1.29215 6.15103 0)
(1.20418 6.16886 0)
(1.11597 6.18542 0)
(1.02753 6.20073 0)
(0.938887 6.21477 0)
(0.850047 6.22754 0)
(0.761035 6.23904 0)
(0.671867 6.24928 0)
(0.582562 6.25823 0)
(0.493138 6.26591 0)
(0.403614 6.27232 0)
(0.314007 6.27744 0)
(0.224337 6.28128 0)
(0.13462 6.28385 0)
(0.0448765 6.28513 0)
(6.26367 0.0447232 0)
(6.26239 0.134161 0)
(6.25983 0.223571 0)
(6.256 0.312935 0)
(6.2509 0.402236 0)
(6.24452 0.491454 0)
(6.23686 0.580572 0)
(6.22794 0.669572 0)
(6.21774 0.758436 0)
(6.20628 0.847145 0)
(6.19355 0.935681 0)
(6.17955 1.02403 0)
(6.1643 1.11216 0)
(6.14779 1.20007 0)
(6.13003 1.28774 0)
(6.11101 1.37514 0)
(6.09076 1.46226 0)
(6.06925 1.54908 0)
(6.04652 1.63559 0)
(6.02254 1.72177 0)
(5.99734 1.80759 0)
(5.97092 1.89304 0)
(5.94328 1.97811 0)
(5.91443 2.06278 0)
(5.88437 2.14702 0)
(5.85311 2.23083 0)
(5.82066 2.31418 0)
(5.78702 2.39706 0)
(5.7522 2.47945 0)
(5.71621 2.56134 0)
(5.67905 2.6427 0)
(5.64074 2.72353 0)
(5.60127 2.8038 0)
(5.56066 2.88349 0)
(5.51892 2.9626 0)
(5.47605 3.04111 0)
(5.43207 3.11899 0)
(5.38698 3.19624 0)
(5.34079 3.27284 0)
(5.29351 3.34877 0)
(5.24515 3.42402 0)
(5.19572 3.49857 0)
(5.14524 3.5724 0)
(5.0937 3.64551 0)
(5.04112 3.71787 0)
(4.98752 3.78948 0)
(4.9329 3.86031 0)
(4.87727 3.93036 0)
(4.82065 3.9996 0)
(4.76305 4.06803 0)
(4.70448 4.13563 0)
(4.64494 4.20238 0)
(4.58446 4.26828 0)
(4.52304 4.33331 0)
(4.4607 4.39746 0)
(4.39746 4.4607 0)
(4.33331 4.52304 0)
(4.26828 4.58446 0)
(4.20238 4.64494 0)
(4.13563 4.70448 0)
(4.06803 4.76305 0)
(3.9996 4.82065 0)
(3.93036 4.87727 0)
(3.86031 4.9329 0)
(3.78948 4.98752 0)
(3.71787 5.04112 0)
(3.64551 5.0937 0)
(3.5724 5.14524 0)
(3.49857 5.19572 0)
(3.42402 5.24515 0)
(3.34877 5.29351 0)
(3.27284 5.34079 0)
(3.19624 5.38698 0)
(3.11899 5.43207 0)
(3.04111 5.47605 0)
(2.9626 5.51892 0)
(2.88349 5.56066 0)
(2.8038 5.60127 0)
(2.72353 5.64074 0)
(2.6427 5.67905 0)
(2.56134 5.71621 0)
(2.47945 5.7522 0)
(2.39706 5.78702 0)
(2.31418 5.82066 0)
(2.23083 5.85311 0)
(2.14702 5.88437 0)
(2.06278 5.91443 0)
(1.97811 5.94328 0)
(1.89304 5.97092 0)
(1.80759 5.99734 0)
(1.72177 6.02254 0)
(1.63559 6.04652 0)
(1.54908 6.06925 0)
(1.46226 6.09076 0)
(1.37514 6.11101 0)
(1.28774 6.13003 0)
(1.20007 6.14779 0)
(1.11216 6.1643 0)
(1.02403 6.17955 0)
(0.935681 6.19355 0)
(0.847145 6.20628 0)
(0.758436 6.21774 0)
(0.669572 6.22794 0)
(0.580572 6.23686 0)
(0.491454 6.24452 0)
(0.402236 6.2509 0)
(0.312935 6.256 0)
(0.223571 6.25983 0)
(0.134161 6.26239 0)
(0.0447232 6.26367 0)
(6.24256 0.0445725 0)
(6.24129 0.133709 0)
(6.23874 0.222817 0)
(6.23492 0.311881 0)
(6.22983 0.40088 0)
(6.22348 0.489798 0)
(6.21585 0.578616 0)
(6.20695 0.667316 0)
(6.19679 0.75588 0)
(6.18536 0.84429 0)
(6.17268 0.932528 0)
(6.15873 1.02058 0)
(6.14353 1.10841 0)
(6.12708 1.19603 0)
(6.10937 1.2834 0)
(6.09042 1.37051 0)
(6.07023 1.45733 0)
(6.0488 1.54387 0)
(6.02614 1.63008 0)
(6.00225 1.71597 0)
(5.97714 1.8015 0)
(5.9508 1.88667 0)
(5.92325 1.97145 0)
(5.8945 2.05583 0)
(5.86454 2.13979 0)