/*--------------------------------*- C++ -*----------------------------------*\
| =========                 |                                                 |
| \\      /  F ield         | OpenFOAM: The Open Source CFD Toolbox           |
|  \\    /   O peration     | Version:  2312                                  |
|   \\  /    A nd           | Website:  www.openfoam.com                      |
|    \\/     M anipulation  |                                                 |
\*---------------------------------------------------------------------------*/
FoamFile
{
    version     2.0;
    format      ascii;
    arch        "LSB;label=32;scalar=64";
    class       volTensorField;
    location    "100";
    object      F;
}
// * * * * * * * * * * * * * * * * * * * * * * * * * * * * * * * * * * * * * //

dimensions      [0 0 0 0 0 0 0];

internalField   nonuniform List<tensor> 
12870
(
(0.740745 -0.00848118 2.61801e-19 -0.00848118 1.92851 -5.08741e-17 0 0 1)
(0.74123 -0.0254366 -1.49416e-17 -0.0254366 1.92802 2.51231e-17 0 0 1)
(0.742198 -0.0423713 1.9948e-17 -0.0423713 1.92706 5.16195e-17 0 0 1)
(0.74365 -0.0592715 1.32148e-18 -0.0592715 1.9256 -2.5403e-17 0 0 1)
(0.745583 -0.0761233 -8.89459e-18 -0.0761233 1.92367 2.49176e-17 0 0 1)
(0.747997 -0.092913 2.18117e-17 -0.092913 1.92126 1.71662e-18 0 0 1)
(0.75089 -0.109627 -4.88711e-18 -0.109627 1.91836 -2.60022e-17 0 0 1)
(0.754258 -0.126251 1.1901e-17 -0.126251 1.915 2.68634e-17 0 0 1)
(0.7581 -0.142773 -6.16e-18 -0.142773 1.91115 5.05003e-17 0 0 1)
(0.762412 -0.159178 1.10286e-17 -0.159178 1.90684 2.71786e-17 0 0 1)
(0.767191 -0.175453 1.82389e-17 -0.175453 1.90206 -2.29705e-17 0 0 1)
(0.772433 -0.191586 2.37624e-17 -0.191586 1.89682 -9.91992e-17 0 0 1)
(0.778133 -0.207561 -2.85423e-17 -0.207561 1.89112 -5.14959e-18 0 0 1)
(0.784287 -0.223368 -7.48982e-18 -0.223368 1.88497 -1.46204e-18 0 0 1)
(0.79089 -0.238993 -8.86302e-18 -0.238993 1.87836 -2.78544e-17 0 0 1)
(0.797937 -0.254422 -3.1099e-17 -0.254422 1.87132 7.12221e-17 0 0 1)
(0.805421 -0.269644 -5.98755e-18 -0.269644 1.86383 2.47226e-17 0 0 1)
(0.813337 -0.284646 7.09926e-18 -0.284646 1.85592 1.81198e-18 0 0 1)
(0.821677 -0.299416 1.36658e-17 -0.299416 1.84758 -2.26549e-17 0 0 1)
(0.830437 -0.313942 7.04084e-18 -0.313942 1.83882 -2.44435e-17 0 0 1)
(0.839607 -0.328211 0 -0.328211 1.82965 0 0 0 1)
(0.849182 -0.342213 -1.46235e-17 -0.342213 1.82007 2.20489e-17 0 0 1)
(0.859152 -0.355936 -1.60662e-17 -0.355936 1.8101 4.82712e-17 0 0 1)
(0.86951 -0.369369 1.51514e-17 -0.369369 1.79974 -2.16557e-17 0 0 1)
(0.880247 -0.3825 1.06504e-17 -0.3825 1.78901 -5.02693e-17 0 0 1)
(0.891355 -0.395319 -4.33109e-18 -0.395319 1.7779 5.27938e-17 0 0 1)
(0.902825 -0.407816 3.21299e-17 -0.407816 1.76643 -4.19739e-17 0 0 1)
(0.914647 -0.41998 6.21179e-18 -0.41998 1.75461 -5.24933e-17 0 0 1)
(0.926811 -0.431802 -6.91471e-18 -0.431802 1.74244 -2.98055e-18 0 0 1)
(0.939308 -0.443272 -4.05843e-17 -0.443272 1.72995 3.75633e-17 0 0 1)
(0.952127 -0.45438 -2.98262e-17 -0.45438 1.71713 9.83471e-17 0 0 1)
(0.965258 -0.465117 2.20291e-17 -0.465117 1.704 -4.5858e-17 0 0 1)
(0.978691 -0.475475 4.9704e-18 -0.475475 1.69056 -2.59582e-17 0 0 1)
(0.992414 -0.485445 -1.82592e-17 -0.485445 1.67684 1.91856e-17 0 0 1)
(1.00642 -0.49502 1.84419e-17 -0.49502 1.66284 -1.89709e-17 0 0 1)
(1.02069 -0.50419 5.98886e-18 -0.50419 1.64857 -2.57708e-17 0 0 1)
(1.03521 -0.512949 2.52444e-17 -0.512949 1.63404 -4.41697e-17 0 0 1)
(1.04998 -0.52129 1.34447e-17 -0.52129 1.61927 -5.11785e-17 0 0 1)
(1.06498 -0.529206 -5.14841e-17 -0.529206 1.60427 2.81177e-17 0 0 1)
(1.0802 -0.53669 -6.6781e-17 -0.53669 1.58905 7.81534e-17 0 0 1)
(1.09563 -0.543737 1.21007e-17 -0.543737 1.57362 7.8993e-18 0 0 1)
(1.11126 -0.55034 1.68289e-19 -0.55034 1.558 1.13318e-19 0 0 1)
(1.12707 -0.556494 -1.70614e-17 -0.556494 1.54219 5.0089e-17 0 0 1)
(1.14304 -0.562194 2.95262e-17 -0.562194 1.52621 -4.143e-17 0 0 1)
(1.15917 -0.567436 -5.73337e-18 -0.567436 1.51008 -4.22841e-18 0 0 1)
(1.17545 -0.572215 -1.91909e-17 -0.572215 1.49381 4.93123e-17 0 0 1)
(1.19185 -0.576527 0 -0.576527 1.4774 0 0 0 1)
(1.20838 -0.580369 3.75483e-17 -0.580369 1.46088 -3.50794e-17 0 0 1)
(1.225 -0.583737 6.49693e-17 -0.583737 1.44425 -7.83065e-17 0 0 1)
(1.24171 -0.58663 1.64034e-17 -0.58663 1.42754 -5.28947e-17 0 0 1)
(1.2585 -0.589044 -1.65086e-17 -0.589044 1.41075 -1.45124e-17 0 0 1)
(1.27536 -0.590977 -6.73844e-17 -0.590977 1.3939 4.19445e-17 0 0 1)
(1.29226 -0.592429 -2.94529e-17 -0.592429 1.377 4.20893e-17 0 0 1)
(1.30919 -0.593397 -1.0508e-17 -0.593397 1.36006 -1.00672e-17 0 0 1)
(1.32615 -0.593881 -4.09338e-17 -0.593881 1.34311 3.1086e-17 0 0 1)
(1.34311 -0.593881 3.8583e-17 -0.593881 1.32615 2.90452e-18 0 0 1)
(1.36006 -0.593397 1.40356e-19 -0.593397 1.30919 1.46501e-19 0 0 1)
(1.377 -0.592429 3.70275e-17 -0.592429 1.29226 -3.48896e-17 0 0 1)
(1.3939 -0.590977 -1.44745e-17 -0.590977 1.27536 -1.59988e-17 0 0 1)
(1.41075 -0.589044 -2.87356e-17 -0.589044 1.2585 4.43666e-17 0 0 1)
(1.42754 -0.58663 -2.39364e-17 -0.58663 1.24171 1.11417e-17 0 0 1)
(1.44425 -0.583737 4.35725e-17 -0.583737 1.225 -2.71582e-17 0 0 1)
(1.46088 -0.580369 6.30087e-18 -0.580369 1.20838 -3.27207e-17 0 0 1)
(1.4774 -0.576527 -5.12228e-17 -0.576527 1.19185 5.83704e-17 0 0 1)
(1.49381 -0.572215 4.49396e-18 -0.572215 1.17545 5.91472e-18 0 0 1)
(1.51008 -0.567436 -6.02109e-20 -0.567436 1.15917 -8.16407e-20 0 0 1)
(1.52621 -0.562194 2.49792e-17 -0.562194 1.14304 -8.80498e-18 0 0 1)
(1.54219 -0.556494 1.66871e-17 -0.556494 1.12707 -2.05676e-17 0 0 1)
(1.558 -0.55034 6.3271e-17 -0.55034 1.11126 -4.2665e-17 0 0 1)
(1.57362 -0.543737 -5.84551e-17 -0.543737 1.09563 3.52342e-18 0 0 1)
(1.58905 -0.53669 -3.92394e-17 -0.53669 1.0802 3.31333e-17 0 0 1)
(1.60427 -0.529206 4.34308e-17 -0.529206 1.06498 -2.64954e-17 0 0 1)
(1.61927 -0.52129 -3.62238e-17 -0.52129 1.04998 3.86494e-17 0 0 1)
(1.63404 -0.512949 -2.21353e-17 -0.512949 1.03521 1.25342e-17 0 0 1)
(1.64857 -0.50419 4.44764e-17 -0.50419 1.02069 -2.46998e-17 0 0 1)
(1.66284 -0.49502 1.89709e-17 -0.49502 1.00642 -1.84419e-17 0 0 1)
(1.67684 -0.485445 -3.37285e-18 -0.485445 0.992414 -6.50436e-18 0 0 1)
(1.69056 -0.475475 -2.2724e-17 -0.475475 0.978691 1.14315e-17 0 0 1)
(1.704 -0.465117 9.51309e-18 -0.465117 0.965258 1.97027e-17 0 0 1)
(1.71713 -0.45438 4.27985e-20 -0.45438 0.952127 9.1972e-20 0 0 1)
(1.72995 -0.443272 4.934e-17 -0.443272 0.939308 -1.4302e-17 0 0 1)
(1.74244 -0.431802 -5.23591e-17 -0.431802 0.926811 7.05389e-18 0 0 1)
(1.75461 -0.41998 8.21749e-18 -0.41998 0.914647 1.98388e-17 0 0 1)
(1.76643 -0.407816 6.29233e-17 -0.407816 0.902825 -4.82891e-17 0 0 1)
(1.7779 -0.395319 -4.7575e-17 -0.395319 0.891355 1.8024e-17 0 0 1)
(1.78901 -0.3825 -2.3879e-17 -0.3825 0.880247 8.76669e-18 0 0 1)
(1.79974 -0.369369 -4.5624e-17 -0.369369 0.86951 2.3672e-17 0 0 1)
(1.8101 -0.355936 7.46405e-17 -0.355936 0.859152 -1.7388e-17 0 0 1)
(1.82007 -0.342213 1.22632e-19 -0.342213 0.849182 3.86795e-19 0 0 1)
(1.82965 -0.328211 -4.66838e-17 -0.328211 0.839607 2.1405e-17 0 0 1)
(1.83882 -0.313942 -1.9582e-18 -0.313942 0.830437 -6.84955e-18 0 0 1)
(1.84758 -0.299416 3.77336e-18 -0.299416 0.821677 1.39495e-17 0 0 1)
(1.85592 -0.284646 9.85887e-17 -0.284646 0.813337 -2.51633e-17 0 0 1)
(1.86383 -0.269644 -5.28188e-17 -0.269644 0.805421 -2.07645e-18 0 0 1)
(1.87132 -0.254422 -9.93116e-17 -0.254422 0.797937 2.21398e-17 0 0 1)
(1.87836 -0.238993 5.57922e-17 -0.238993 0.79089 1.81231e-17 0 0 1)
(1.88497 -0.223368 2.35915e-17 -0.223368 0.784287 -1.19153e-17 0 0 1)
(1.89112 -0.207561 -5.00663e-17 -0.207561 0.778133 9.03296e-18 0 0 1)
(1.89682 -0.191586 2.6268e-17 -0.191586 0.772433 2.9196e-18 0 0 1)
(1.90206 -0.175453 9.95132e-17 -0.175453 0.767191 -2.24438e-17 0 0 1)
(1.90684 -0.159178 -2.51693e-17 -0.159178 0.762412 3.69152e-18 0 0 1)
(1.91115 -0.142773 -7.66561e-17 -0.142773 0.7581 1.81601e-18 0 0 1)
(1.915 -0.126251 0 -0.126251 0.754258 0 0 0 1)
(1.91836 -0.109627 2.53231e-17 -0.109627 0.75089 -2.4082e-18 0 0 1)
(1.92126 -0.092913 7.60728e-17 -0.092913 0.747997 -6.03793e-18 0 0 1)
(1.92367 -0.0761233 -2.63095e-17 -0.0761233 0.745583 -1.27369e-17 0 0 1)
(1.9256 -0.0592715 -5.04552e-17 -0.0592715 0.74365 9.65672e-18 0 0 1)
(1.92706 -0.0423713 7.62615e-17 -0.0423713 0.742198 -2.77444e-18 0 0 1)
(1.92802 -0.0254366 -3.09512e-19 -0.0254366 0.74123 -1.44475e-17 0 0 1)
(1.92851 -0.00848118 -5.08741e-17 -0.00848118 0.740745 2.61801e-19 0 0 1)
(0.743931 -0.00834055 -7.33815e-18 -0.00834055 1.912 -5.23951e-20 0 0 1)
(0.744407 -0.0250149 -1.35814e-17 -0.0250149 1.91152 -4.95779e-17 0 0 1)
(0.74536 -0.0416688 -5.41251e-21 -0.0416688 1.91057 -1.93146e-22 0 0 1)
(0.746787 -0.0582887 -3.74198e-18 -0.0582887 1.90914 7.38186e-17 0 0 1)
(0.748689 -0.074861 -1.16118e-17 -0.074861 1.90724 -5.01247e-17 0 0 1)
(0.751063 -0.0913723 7.40881e-18 -0.0913723 1.90487 5.83085e-19 0 0 1)
(0.753907 -0.107809 -2.27751e-19 -0.107809 1.90202 -2.12004e-20 0 0 1)
(0.75722 -0.124158 1.60139e-19 -0.124158 1.89871 1.7217e-20 0 0 1)
(0.760998 -0.140406 -1.34469e-17 -0.140406 1.89493 4.80006e-17 0 0 1)
(0.765239 -0.156539 1.05179e-17 -0.156539 1.89069 -2.34306e-17 0 0 1)
(0.769938 -0.172544 -1.3383e-19 -0.172544 1.88599 -2.02182e-20 0 0 1)
(0.775093 -0.188409 1.36938e-17 -0.188409 1.88084 5.22168e-17 0 0 1)
(0.780699 -0.20412 -2.30234e-17 -0.20412 1.87523 4.59173e-17 0 0 1)
(0.786751 -0.219664 2.20765e-18 -0.219664 1.86918 -4.97747e-17 0 0 1)
(0.793244 -0.23503 -2.12189e-17 -0.23503 1.86269 -4.45746e-18 0 0 1)
(0.800174 -0.250203 -5.42144e-18 -0.250203 1.85576 2.40339e-17 0 0 1)
(0.807534 -0.265173 1.15032e-17 -0.265173 1.8484 -4.79141e-17 0 0 1)
(0.815318 -0.279926 1.31858e-17 -0.279926 1.84061 -2.20622e-17 0 0 1)
(0.823521 -0.294451 -7.14907e-18 -0.294451 1.83241 -1.93384e-18 0 0 1)
(0.832135 -0.308736 -1.41113e-17 -0.308736 1.82379 -4.03424e-18 0 0 1)
(0.841154 -0.322769 -7.06258e-18 -0.322769 1.81478 2.36039e-17 0 0 1)
(0.850569 -0.336539 -2.1419e-17 -0.336539 1.80536 1.90557e-17 0 0 1)
(0.860374 -0.350034 6.9628e-18 -0.350034 1.79556 2.31744e-18 0 0 1)
(0.87056 -0.363244 6.8651e-18 -0.363244 1.78537 2.39435e-18 0 0 1)
(0.88112 -0.376158 1.83655e-17 -0.376158 1.77481 -7.19787e-17 0 0 1)
(0.892043 -0.388764 2.0218e-18 -0.388764 1.76389 -2.55961e-17 0 0 1)
(0.903323 -0.401054 -1.16034e-17 -0.401054 1.75261 4.8414e-17 0 0 1)
(0.914948 -0.413016 -3.63767e-17 -0.413016 1.74098 1.16e-17 0 0 1)
(0.926911 -0.424642 -1.64747e-17 -0.424642 1.72902 1.97278e-17 0 0 1)
(0.939201 -0.435921 1.02148e-17 -0.435921 1.71673 -2.2421e-17 0 0 1)
(0.951807 -0.446845 2.92349e-18 -0.446845 1.70412 2.85352e-17 0 0 1)
(0.964721 -0.457405 2.37068e-18 -0.457405 1.69121 2.8504e-17 0 0 1)
(0.977931 -0.467591 1.48868e-19 -0.467591 1.678 7.45183e-20 0 0 1)
(0.991426 -0.477396 1.12703e-17 -0.477396 1.6645 -2.19091e-17 0 0 1)
(1.0052 -0.486811 1.17239e-17 -0.486811 1.65073 -2.16697e-17 0 0 1)
(1.01923 -0.49583 -2.72142e-20 -0.49583 1.6367 -1.51133e-20 0 0 1)
(1.03351 -0.504444 1.23109e-17 -0.504444 1.62242 -2.13416e-17 0 0 1)
(1.04804 -0.512647 -3.75646e-17 -0.512647 1.60789 3.50081e-17 0 0 1)
(1.06279 -0.520431 -3.81138e-17 -0.520431 1.59314 3.44356e-17 0 0 1)
(1.07776 -0.527791 2.63746e-17 -0.527791 1.57817 -4.16229e-17 0 0 1)
(1.09294 -0.534721 5.14848e-17 -0.534721 1.56299 -2.52365e-17 0 0 1)
(1.1083 -0.541214 0 -0.541214 1.54763 0 0 0 1)
(1.12385 -0.547266 -1.60773e-17 -0.547266 1.53208 4.88256e-17 0 0 1)
(1.13956 -0.552872 -1.44596e-17 -0.552872 1.51637 1.9949e-17 0 0 1)
(1.15542 -0.558027 2.93018e-17 -0.558027 1.50051 -3.96168e-17 0 0 1)
(1.17143 -0.562726 -2.07382e-17 -0.562726 1.4845 1.51859e-17 0 0 1)
(1.18756 -0.566967 -3.74245e-18 -0.566967 1.46837 2.83565e-17 0 0 1)
(1.20381 -0.570745 3.08662e-17 -0.570745 1.45212 -3.84105e-17 0 0 1)
(1.22016 -0.574058 -1.12192e-17 -0.574058 1.43577 -9.30831e-18 0 0 1)
(1.23659 -0.576902 -1.58842e-17 -0.576902 1.41934 1.88345e-17 0 0 1)
(1.2531 -0.579276 -1.6382e-17 -0.579276 1.40283 -1.44011e-17 0 0 1)
(1.26968 -0.581178 3.18119e-19 -0.581178 1.38625 -3.29369e-17 0 0 1)
(1.2863 -0.582605 -2.21006e-17 -0.582605 1.36963 1.30867e-17 0 0 1)
(1.30295 -0.583558 -4.46603e-17 -0.583558 1.35298 2.54534e-17 0 0 1)
(1.31962 -0.584034 6.90943e-17 -0.584034 1.33631 -7.02732e-17 0 0 1)
(1.33631 -0.584034 4.54127e-17 -0.584034 1.31962 -2.41233e-17 0 0 1)
(1.35298 -0.583558 -9.14694e-17 -0.583558 1.30295 4.69819e-17 0 0 1)
(1.36963 -0.582605 -1.31328e-17 -0.582605 1.2863 2.20511e-17 0 0 1)
(1.38625 -0.581178 1.69835e-17 -0.581178 1.26968 -5.46753e-17 0 0 1)
(1.40283 -0.579276 9.666e-18 -0.579276 1.2531 1.09955e-17 0 0 1)
(1.41934 -0.576902 -4.69572e-17 -0.576902 1.23659 2.08932e-17 0 0 1)
(1.43577 -0.574058 1.39508e-17 -0.574058 1.22016 1.68147e-17 0 0 1)
(1.45212 -0.570745 2.46817e-17 -0.570745 1.20381 -4.79026e-17 0 0 1)
(1.46837 -0.566967 2.38724e-17 -0.566967 1.18756 -9.47252e-18 0 0 1)
(1.4845 -0.562726 -3.47769e-17 -0.562726 1.17143 3.56785e-17 0 0 1)
(1.50051 -0.558027 1.73053e-17 -0.558027 1.15542 2.34645e-17 0 0 1)
(1.51637 -0.552872 -4.19525e-18 -0.552872 1.13956 -5.86182e-18 0 0 1)
(1.53208 -0.547266 -7.41034e-20 -0.547266 1.12385 -1.06729e-19 0 0 1)
(1.54763 -0.541214 -8.08706e-18 -0.541214 1.1083 -1.20101e-17 0 0 1)
(1.56299 -0.534721 -3.25982e-17 -0.534721 1.09294 -4.86433e-18 0 0 1)
(1.57817 -0.527791 4.16062e-17 -0.527791 1.07776 -2.64009e-17 0 0 1)
(1.59314 -0.520431 5.91614e-17 -0.520431 1.06279 -4.49187e-17 0 0 1)
(1.60789 -0.512647 -4.97846e-17 -0.512647 1.04804 1.26602e-17 0 0 1)
(1.62242 -0.504444 -5.69136e-17 -0.504444 1.03351 4.93178e-17 0 0 1)
(1.6367 -0.49583 2.5126e-17 -0.49583 1.01923 -5.50312e-18 0 0 1)
(1.65073 -0.486811 3.20079e-20 -0.486811 1.0052 5.96264e-20 0 0 1)
(1.6645 -0.477396 2.18804e-17 -0.477396 0.991426 -1.13256e-17 0 0 1)
(1.678 -0.467591 6.60731e-17 -0.467591 0.977931 -3.31291e-17 0 0 1)
(1.69121 -0.457405 3.18837e-18 -0.457405 0.964721 6.60348e-18 0 0 1)
(1.70412 -0.446845 -3.8525e-17 -0.446845 0.951807 3.40062e-17 0 0 1)
(1.71673 -0.435921 2.97304e-18 -0.435921 0.939201 6.63502e-18 0 0 1)
(1.72902 -0.424642 -8.66078e-18 -0.424642 0.926911 -2.00925e-17 0 0 1)
(1.74098 -0.413016 -2.00129e-17 -0.413016 0.914948 1.60663e-17 0 0 1)
(1.75261 -0.401054 3.85041e-20 -0.401054 0.903323 9.68458e-20 0 0 1)
(1.76389 -0.388764 2.30399e-17 -0.388764 0.892043 -8.72847e-18 0 0 1)
(1.77481 -0.376158 -2.51533e-18 -0.376158 0.88112 -6.89379e-18 0 0 1)
(1.78537 -0.363244 -2.32695e-17 -0.363244 0.87056 8.09637e-18 0 0 1)
(1.79556 -0.350034 4.89876e-17 -0.350034 0.860374 -8.85011e-18 0 0 1)
(1.80536 -0.336539 8.9581e-20 -0.336539 0.850569 2.82549e-19 0 0 1)
(1.81478 -0.322769 -6.87135e-17 -0.322769 0.841154 2.81491e-17 0 0 1)
(1.82379 -0.308736 2.16766e-17 -0.308736 0.832135 -1.38104e-17 0 0 1)
(1.83241 -0.294451 3.14253e-17 -0.294451 0.823521 2.18187e-17 0 0 1)
(1.84061 -0.279926 -1.81482e-18 -0.279926 0.815318 -7.11039e-18 0 0 1)
(1.8484 -0.265173 -5.12856e-17 -0.265173 0.807534 -2.54031e-18 0 0 1)
(1.85576 -0.250203 4.96194e-17 -0.250203 0.800174 -3.94767e-18 0 0 1)
(1.86269 -0.23503 2.71442e-17 -0.23503 0.793244 9.37157e-18 0 0 1)
(1.86918 -0.219664 -7.25596e-17 -0.219664 0.786751 1.40819e-17 0 0 1)
(1.87523 -0.20412 0 -0.20412 0.780699 0 0 0 1)
(1.88084 -0.188409 4.78769e-18 -0.188409 0.775093 2.88917e-17 0 0 1)
(1.88599 -0.172544 7.30721e-17 -0.172544 0.769938 -1.11207e-17 0 0 1)
(1.89069 -0.156539 -2.63496e-17 -0.156539 0.765239 -1.08671e-17 0 0 1)
(1.89493 -0.140406 -7.25027e-17 -0.140406 0.760998 1.60559e-17 0 0 1)
(1.89871 -0.124158 2.37175e-17 -0.124158 0.75722 -9.88083e-18 0 0 1)
(1.90202 -0.107809 2.3847e-17 -0.107809 0.753907 -9.63953e-18 0 0 1)
(1.90487 -0.0913723 2.399e-17 -0.0913724 0.751063 -9.19952e-18 0 0 1)
(1.90724 -0.074861 -9.3378e-19 -0.074861 0.748689 -1.45113e-17 0 0 1)
(1.90914 -0.0582887 3.63236e-19 -0.0582887 0.746787 7.26158e-18 0 0 1)
(1.91057 -0.0416688 0 -0.0416688 0.74536 0 0 0 1)
(1.91152 -0.0250149 -3.1145e-19 -0.0250149 0.744407 -1.4538e-17 0 0 1)
(1.912 -0.00834055 0 -0.00834055 0.743931 0 0 0 1)
(0.748373 -0.00819481 1.89084e-19 -0.00819481 1.89603 -2.38739e-17 0 0 1)
(0.748841 -0.0245777 9.57365e-20 -0.0245777 1.89556 2.05087e-21 0 0 1)
(0.749777 -0.0409406 -2.91208e-17 -0.0409406 1.89463 -1.04005e-18 0 0 1)
(0.75118 -0.0572701 -1.56526e-17 -0.0572701 1.89322 2.31215e-17 0 0 1)
(0.753048 -0.0735529 2.17623e-17 -0.0735529 1.89136 1.40037e-18 0 0 1)
(0.75538 -0.0897757 -1.06021e-17 -0.0897757 1.88902 -4.87313e-17 0 0 1)
(0.758175 -0.105925 -7.34552e-18 -0.105925 1.88623 -6.83775e-19 0 0 1)
(0.76143 -0.121988 -1.94145e-17 -0.121988 1.88297 4.59371e-17 0 0 1)
(0.765142 -0.137952 4.28964e-18 -0.137952 1.87926 2.45748e-17 0 0 1)
(0.769309 -0.153803 1.4648e-17 -0.153803 1.8751 1.99942e-18 0 0 1)
(0.773926 -0.169529 1.05939e-17 -0.169529 1.87048 -7.08361e-17 0 0 1)
(0.778991 -0.185116 7.95836e-18 -0.185116 1.86541 -4.70816e-17 0 0 1)
(0.784499 -0.200553 -2.6977e-18 -0.200553 1.85991 9.65536e-17 0 0 1)
(0.790445 -0.215826 -4.71506e-18 -0.215826 1.85396 2.34048e-17 0 0 1)
(0.796825 -0.230923 9.88151e-18 -0.230923 1.84758 -4.67156e-17 0 0 1)
(0.803633 -0.245831 1.42285e-17 -0.245831 1.84077 3.20179e-18 0 0 1)
(0.810865 -0.260539 7.01567e-18 -0.260539 1.83354 1.68431e-18 0 0 1)
(0.818513 -0.275035 -5.76517e-18 -0.275035 1.82589 2.31685e-17 0 0 1)
(0.826573 -0.289306 -1.24322e-17 -0.289306 1.81783 4.61024e-17 0 0 1)
(0.835036 -0.303341 4.12775e-17 -0.303341 1.80937 -3.78615e-17 0 0 1)
(0.843897 -0.317129 1.83369e-19 -0.317129 1.80051 5.52674e-20 0 0 1)
(0.853148 -0.330658 6.84975e-18 -0.330658 1.79126 2.17167e-18 0 0 1)
(0.862782 -0.343918 2.84228e-17 -0.343918 1.78162 -1.57023e-17 0 0 1)
(0.87279 -0.356897 -1.00452e-18 -0.356897 1.77161 2.49347e-17 0 0 1)
(0.883165 -0.369585 -6.8679e-18 -0.369585 1.76124 -2.50588e-18 0 0 1)
(0.893898 -0.381971 -1.34764e-17 -0.381971 1.75051 -5.13634e-18 0 0 1)
(0.90498 -0.394046 -8.71423e-18 -0.394046 1.73942 2.22277e-17 0 0 1)
(0.916403 -0.405799 3.44071e-20 -0.405799 1.728 1.4252e-20 0 0 1)
(0.928156 -0.417222 4.44275e-17 -0.417222 1.71625 -8.48422e-17 0 0 1)
(0.940231 -0.428304 1.64706e-17 -0.428304 1.70417 -1.87816e-17 0 0 1)
(0.952617 -0.439037 -2.02322e-17 -0.439037 1.69179 4.32511e-17 0 0 1)
(0.965305 -0.449412 -1.19771e-19 -0.449412 1.6791 -5.78292e-20 0 0 1)
(0.978284 -0.45942 -4.16585e-18 -0.45942 1.66612 2.46134e-17 0 0 1)
(0.991544 -0.469054 -1.1092e-17 -0.469054 1.65286 2.11418e-17 0 0 1)
(1.00507 -0.478305 -1.57436e-18 -0.478305 1.63933 -2.79422e-17 0 0 1)
(1.01886 -0.487166 1.79663e-17 -0.487166 1.62554 -1.73316e-17 0 0 1)
(1.0329 -0.495629 0 -0.495629 1.61151 0 0 0 1)
(1.04717 -0.503689 1.25747e-17 -0.503689 1.59724 7.46094e-18 0 0 1)
(1.06166 -0.511337 1.23535e-17 -0.511337 1.58274 7.57025e-18 0 0 1)
(1.07637 -0.518569 2.53344e-17 -0.518569 1.56803 -4.04748e-17 0 0 1)
(1.09128 -0.525377 1.22927e-17 -0.525377 1.55312 8.02462e-18 0 0 1)
(1.10638 -0.531757 -2.6749e-17 -0.531757 1.53803 3.95536e-17 0 0 1)
(1.12165 -0.537703 -2.71538e-17 -0.537703 1.52275 3.92768e-17 0 0 1)
(1.13709 -0.543211 1.17344e-17 -0.543211 1.50732 8.3982e-18 0 0 1)
(1.15267 -0.548276 -1.99153e-17 -0.548276 1.49173 1.49776e-17 0 0 1)
(1.1684 -0.552893 -6.98898e-20 -0.552893 1.47601 -5.31013e-20 0 0 1)
(1.18425 -0.55706 2.63122e-17 -0.55706 1.46015 -9.72514e-18 0 0 1)
(1.20021 -0.560772 -3.56764e-17 -0.560772 1.44419 3.25739e-17 0 0 1)
(1.21628 -0.564027 6.0933e-17 -0.564027 1.42813 -7.35332e-17 0 0 1)
(1.23243 -0.566822 1.00493e-17 -0.566822 1.41198 -2.28143e-17 0 0 1)
(1.24865 -0.569154 -4.1906e-17 -0.569154 1.39575 5.85254e-17 0 0 1)
(1.26493 -0.571022 -1.05606e-17 -0.571022 1.37947 2.26411e-17 0 0 1)
(1.28126 -0.572425 -1.62063e-17 -0.572425 1.36314 1.75317e-17 0 0 1)
(1.29762 -0.57336 1.64819e-17 -0.57336 1.34678 -1.72727e-17 0 0 1)
(1.31401 -0.573829 4.38871e-17 -0.573829 1.3304 -2.37858e-17 0 0 1)
(1.3304 -0.573829 -6.10095e-17 -0.573829 1.31401 4.01354e-17 0 0 1)
(1.34678 -0.57336 -1.72874e-17 -0.57336 1.29762 1.64665e-17 0 0 1)
(1.36314 -0.572425 4.4996e-17 -0.572425 1.28126 -2.17442e-17 0 0 1)
(1.37947 -0.571022 1.27477e-17 -0.571022 1.26493 -2.14959e-17 0 0 1)
(1.39575 -0.569154 1.26448e-19 -0.569154 1.24865 1.43839e-19 0 0 1)
(1.41198 -0.566822 4.66678e-18 -0.566822 1.23243 5.4641e-18 0 0 1)
(1.42813 -0.564027 1.83807e-17 -0.564027 1.21628 -1.52363e-17 0 0 1)
(1.44419 -0.560772 -1.40325e-17 -0.560772 1.20021 2.06358e-17 0 0 1)
(1.46015 -0.55706 1.88133e-17 -0.55706 1.18425 -1.46989e-17 0 0 1)
(1.47601 -0.552893 5.70009e-17 -0.552893 1.1684 -4.3369e-17 0 0 1)
(1.49173 -0.548276 -2.97373e-17 -0.548276 1.15267 4.01259e-17 0 0 1)
(1.50732 -0.543211 -5.83059e-17 -0.543211 1.13709 4.15981e-17 0 0 1)
(1.52275 -0.537703 8.35569e-18 -0.537703 1.12165 1.20345e-17 0 0 1)
(1.53803 -0.531757 -8.14585e-18 -0.531757 1.10638 -1.20974e-17 0 0 1)
(1.55312 -0.525377 8.00863e-18 -0.525377 1.09128 1.22682e-17 0 0 1)
(1.56803 -0.518569 3.89285e-18 -0.518569 1.07637 6.15356e-18 0 0 1)
(1.58274 -0.511337 -7.55496e-18 -0.511337 1.06166 -1.23286e-17 0 0 1)
(1.59724 -0.503689 1.3134e-17 -0.503689 1.04717 -2.4652e-17 0 0 1)
(1.61151 -0.495629 4.86708e-17 -0.495629 1.0329 -1.11284e-17 0 0 1)
(1.62554 -0.487166 3.51712e-18 -0.487166 1.01886 6.3332e-18 0 0 1)
(1.63933 -0.478305 -3.48923e-18 -0.478305 1.00507 -6.49996e-18 0 0 1)
(1.65286 -0.469054 3.33484e-18 -0.469054 0.991544 6.43105e-18 0 0 1)
(1.66612 -0.45942 -6.54486e-18 -0.45942 0.978284 -1.3075e-17 0 0 1)
(1.6791 -0.449412 3.66581e-17 -0.449412 0.965305 -3.3895e-17 0 0 1)
(1.69179 -0.439037 2.46873e-20 -0.439037 0.952617 5.30536e-20 0 0 1)
(1.70417 -0.428304 -6.53817e-17 -0.428304 0.940231 2.9244e-17 0 0 1)
(1.71625 -0.417222 -4.38228e-17 -0.417222 0.928156 1.8962e-17 0 0 1)
(1.728 -0.405799 6.61311e-17 -0.405799 0.916403 -2.75075e-17 0 0 1)
(1.73942 -0.394046 4.71044e-17 -0.394046 0.90498 -1.07659e-17 0 0 1)
(1.75051 -0.381971 -6.69445e-17 -0.381971 0.893898 2.54637e-17 0 0 1)
(1.76124 -0.369585 -2.74337e-17 -0.369585 0.883165 -5.53491e-18 0 0 1)
(1.77161 -0.356897 -4.79322e-18 -0.356897 0.87279 -1.37432e-17 0 0 1)
(1.78162 -0.343918 7.02219e-17 -0.343918 0.862782 -1.58184e-17 0 0 1)
(1.79126 -0.330658 -4.33209e-18 -0.330658 0.853148 -1.3664e-17 0 0 1)
(1.80051 -0.317129 -6.65085e-17 -0.317129 0.843897 2.75311e-17 0 0 1)
(1.80937 -0.303341 7.08349e-17 -0.303341 0.835036 -1.27965e-17 0 0 1)
(1.81783 -0.289306 4.02842e-20 -0.289306 0.826573 1.48922e-19 0 0 1)
(1.82589 -0.275035 -4.99129e-17 -0.275035 0.818513 -2.47982e-18 0 0 1)
(1.83354 -0.260539 2.23546e-20 -0.260539 0.810865 9.31126e-20 0 0 1)
(1.84077 -0.245831 3.17435e-18 -0.245831 0.803633 1.41066e-17 0 0 1)
(1.84758 -0.230923 2.03959e-17 -0.230923 0.796825 -1.90404e-17 0 0 1)
(1.85396 -0.215826 -2.48366e-17 -0.215826 0.790445 -2.61955e-18 0 0 1)
(1.85991 -0.200553 4.82546e-17 -0.200553 0.784499 -1.47188e-18 0 0 1)
(1.86541 -0.185116 2.47551e-17 -0.185116 0.778991 3.3487e-18 0 0 1)
(1.87048 -0.169529 -4.61456e-17 -0.169529 0.773926 1.4201e-17 0 0 1)
(1.8751 -0.153803 -1.95949e-18 -0.153803 0.769309 -1.43554e-17 0 0 1)
(1.87926 -0.137952 -4.5632e-17 -0.137952 0.765142 2.02586e-17 0 0 1)
(1.88297 -0.121988 -4.66973e-17 -0.121988 0.76143 1.2344e-17 0 0 1)
(1.88623 -0.105925 2.44512e-17 -0.105925 0.758175 5.08499e-18 0 0 1)
(1.88902 -0.0897757 4.646e-17 -0.0897757 0.75538 -1.82565e-17 0 0 1)
(1.89136 -0.0735529 2.38284e-17 -0.0735529 0.753048 -1.48534e-18 0 0 1)
(1.89322 -0.0572701 -7.3048e-19 -0.0572701 0.75118 -1.46033e-17 0 0 1)
(1.89463 -0.0409406 0 -0.0409406 0.749777 0 0 0 1)
(1.89556 -0.0245777 0 -0.0245777 0.748841 0 0 0 1)
(1.89603 -0.00819481 0 -0.00819481 0.748373 0 0 0 1)
(0.752001 -0.0080582 -7.36904e-18 -0.0080582 1.88053 -5.26158e-20 0 0 1)
(0.752461 -0.024168 -8.98342e-19 -0.024168 1.88007 4.62799e-17 0 0 1)
(0.753382 -0.0402582 5.61935e-18 -0.0402582 1.87915 4.65188e-17 0 0 1)
(0.754761 -0.0563154 4.57001e-18 -0.0563154 1.87777 -9.24642e-17 0 0 1)
(0.756598 -0.0723268 1.75668e-17 -0.0723268 1.87593 -4.52539e-17 0 0 1)
(0.758891 -0.0882792 -2.18259e-17 -0.0882792 1.87364 9.11456e-17 0 0 1)
(0.76164 -0.10416 -5.48827e-20 -0.10416 1.87089 -5.10892e-21 0 0 1)
(0.76484 -0.119955 1.95643e-17 -0.119955 1.86769 -4.44519e-17 0 0 1)
(0.76849 -0.135653 5.38217e-18 -0.135653 1.86404 -4.59751e-17 0 0 1)
(0.772588 -0.151239 7.22626e-18 -0.151239 1.85994 9.86371e-19 0 0 1)
(0.777128 -0.166703 2.17508e-17 -0.166703 1.8554 5.00998e-17 0 0 1)
(0.782108 -0.182031 -1.42815e-17 -0.182031 1.85042 -2.36662e-18 0 0 1)
(0.787524 -0.19721 -8.12706e-18 -0.19721 1.845 4.55696e-17 0 0 1)
(0.793371 -0.212228 -1.82754e-19 -0.212228 1.83916 -3.56739e-20 0 0 1)
(0.799645 -0.227073 2.39543e-18 -0.227073 1.83288 -4.67957e-17 0 0 1)
(0.80634 -0.241733 0 -0.241733 1.82619 0 0 0 1)
(0.813451 -0.256196 -7.16562e-18 -0.256196 1.81908 -1.72031e-18 0 0 1)
(0.820972 -0.27045 0 -0.27045 1.81156 0 0 0 1)
(0.828897 -0.284483 3.79678e-17 -0.284483 1.80363 -8.56339e-17 0 0 1)
(0.837219 -0.298285 1.40247e-17 -0.298285 1.79531 4.00947e-18 0 0 1)
(0.845933 -0.311843 -4.08798e-17 -0.311843 1.7866 8.43695e-17 0 0 1)
(0.855029 -0.325146 1.37756e-17 -0.325146 1.7775 -4.41918e-17 0 0 1)
(0.864502 -0.338185 -1.38076e-17 -0.338185 1.76803 -4.5956e-18 0 0 1)
(0.874344 -0.350947 -3.74453e-17 -0.350947 1.75818 8.49863e-17 0 0 1)
(0.884546 -0.363424 6.74789e-18 -0.363424 1.74798 2.46209e-18 0 0 1)
(0.8951 -0.375604 2.3336e-17 -0.375604 1.73743 -4.06424e-17 0 0 1)
(0.905997 -0.387477 6.72605e-18 -0.387477 1.72653 2.67415e-18 0 0 1)
(0.917229 -0.399035 1.33744e-17 -0.399035 1.7153 5.53984e-18 0 0 1)
(0.928787 -0.410267 -6.76732e-18 -0.410267 1.70374 -2.91701e-18 0 0 1)
(0.940661 -0.421164 1.19623e-19 -0.421164 1.69187 5.36013e-20 0 0 1)
(0.95284 -0.431718 -1.94447e-17 -0.431718 1.67969 4.20065e-17 0 0 1)
(0.965317 -0.44192 -4.96371e-20 -0.44192 1.66721 -2.39662e-20 0 0 1)
(0.978079 -0.451762 1.66508e-19 -0.451762 1.65445 8.33474e-20 0 0 1)
(0.991118 -0.461235 -2.78168e-17 -0.461235 1.64141 3.77174e-17 0 0 1)
(1.00442 -0.470332 2.83039e-17 -0.470332 1.62811 -3.73424e-17 0 0 1)
(1.01798 -0.479045 2.25546e-17 -0.479045 1.61455 -4.04219e-17 0 0 1)
(1.03178 -0.487367 2.29681e-17 -0.487367 1.60075 -4.01884e-17 0 0 1)
(1.04581 -0.495292 4.7404e-20 -0.495292 1.58671 2.81259e-20 0 0 1)
(1.06007 -0.502813 -6.08262e-17 -0.502813 1.57246 7.13026e-17 0 0 1)
(1.07453 -0.509924 2.46215e-17 -0.509924 1.558 -3.91973e-17 0 0 1)
(1.08919 -0.516619 1.33049e-17 -0.516619 1.54334 -4.65929e-17 0 0 1)
(1.10404 -0.522893 -2.5931e-17 -0.522893 1.52849 3.83435e-17 0 0 1)
(1.11905 -0.52874 0 -0.52874 1.51347 0 0 0 1)
(1.13423 -0.534156 -1.50919e-17 -0.534156 1.49829 4.61208e-17 0 0 1)
(1.14956 -0.539136 -4.43606e-20 -0.539136 1.48297 -3.27162e-20 0 0 1)
(1.16502 -0.543677 5.69987e-17 -0.543677 1.4675 -1.48266e-17 0 0 1)
(1.18061 -0.547774 -2.84537e-17 -0.547774 1.45192 3.65106e-17 0 0 1)
(1.19631 -0.551424 1.12289e-17 -0.551424 1.43622 9.04884e-18 0 0 1)
(1.2121 -0.554625 1.12843e-17 -0.554625 1.42042 9.36235e-18 0 0 1)
(1.22798 -0.557373 -1.10498e-17 -0.557373 1.40454 -9.4374e-18 0 0 1)
(1.24394 -0.559666 3.60677e-17 -0.559666 1.38859 -2.99248e-17 0 0 1)
(1.25995 -0.561503 5.36745e-18 -0.561503 1.37258 4.85606e-18 0 0 1)
(1.27601 -0.562883 -3.15696e-17 -0.562883 1.35652 3.38525e-17 0 0 1)
(1.2921 -0.563803 1.04134e-17 -0.563803 1.34043 9.97656e-18 0 0 1)
(1.30821 -0.564263 3.77173e-17 -0.564263 1.32432 -2.7817e-17 0 0 1)
(1.32432 -0.564263 0 -0.564263 1.30821 0 0 0 1)
(1.34043 -0.563803 2.00294e-17 -0.563803 1.2921 2.09064e-17 0 0 1)
(1.35652 -0.562883 -2.88827e-17 -0.562883 1.27601 3.69075e-17 0 0 1)
(1.37258 -0.561503 9.67513e-18 -0.561503 1.25995 1.0694e-17 0 0 1)
(1.38859 -0.559666 3.48267e-17 -0.559666 1.24394 -3.04916e-17 0 0 1)
(1.40454 -0.557373 -2.5736e-17 -0.557373 1.22798 4.11407e-17 0 0 1)
(1.42042 -0.554625 -9.36235e-18 -0.554625 1.2121 -1.12843e-17 0 0 1)
(1.43622 -0.551424 4.9808e-17 -0.551424 1.19631 -1.19623e-17 0 0 1)
(1.45192 -0.547774 4.46077e-18 -0.547774 1.18061 5.7002e-18 0 0 1)
(1.4675 -0.543677 0 -0.543677 1.16502 0 0 0 1)
(1.48297 -0.539136 -8.59236e-18 -0.539136 1.14956 -1.16505e-17 0 0 1)
(1.49829 -0.534156 1.69265e-17 -0.534156 1.13423 2.36506e-17 0 0 1)
(1.51347 -0.52874 -2.55103e-17 -0.52874 1.11905 4.44203e-17 0 0 1)
(1.52849 -0.522893 -1.04001e-19 -0.522893 1.10404 -1.54452e-19 0 0 1)
(1.54334 -0.516619 5.07531e-17 -0.516619 1.08919 -6.93207e-18 0 0 1)
(1.558 -0.509924 -3.91384e-17 -0.509924 1.07453 2.47147e-17 0 0 1)
(1.57246 -0.502813 3.75312e-18 -0.502813 1.06007 6.12454e-18 0 0 1)
(1.58671 -0.495292 4.72431e-17 -0.495292 1.04581 -1.10898e-17 0 0 1)
(1.60075 -0.487367 0 -0.487367 1.03178 0 0 0 1)
(1.61455 -0.479045 -2.6238e-17 -0.479045 1.01798 4.80952e-17 0 0 1)
(1.62811 -0.470332 -2.60703e-20 -0.470332 1.00442 -4.85649e-20 0 0 1)
(1.64141 -0.461235 8.57169e-20 -0.461235 0.991118 1.65301e-19 0 0 1)
(1.65445 -0.451762 -2.46727e-20 -0.451762 0.978079 -4.92897e-20 0 0 1)
(1.66721 -0.44192 4.17245e-17 -0.44192 0.965317 -2.00425e-17 0 0 1)
(1.67969 -0.431718 -6.10754e-18 -0.431718 0.95284 -1.31248e-17 0 0 1)
(1.69187 -0.421164 5.9731e-18 -0.421164 0.940661 1.33303e-17 0 0 1)
(1.70374 -0.410267 8.64727e-18 -0.410267 0.928787 2.00612e-17 0 0 1)
(1.7153 -0.399035 1.11298e-17 -0.399035 0.917229 2.68698e-17 0 0 1)
(1.72653 -0.387477 -5.3483e-18 -0.387477 0.905997 -1.34521e-17 0 0 1)
(1.73743 -0.375604 -4.84226e-17 -0.375604 0.8951 2.92285e-18 0 0 1)
(1.74798 -0.363424 -4.09904e-17 -0.363424 0.884546 2.27015e-17 0 0 1)
(1.75818 -0.350947 4.61027e-17 -0.350947 0.874344 -8.3733e-18 0 0 1)
(1.76803 -0.338185 5.0848e-17 -0.338185 0.864502 6.19804e-18 0 0 1)
(1.7775 -0.325146 -8.78963e-18 -0.325146 0.855029 -2.77237e-17 0 0 1)
(1.7866 -0.311843 6.3041e-18 -0.311843 0.845933 2.09162e-17 0 0 1)
(1.79531 -0.298285 6.00478e-18 -0.298285 0.837219 2.1004e-17 0 0 1)
(1.80363 -0.284483 -5.22526e-17 -0.284483 0.828897 -1.58981e-17 0 0 1)
(1.81156 -0.27045 1.77641e-18 -0.27045 0.820972 6.95991e-18 0 0 1)
(1.81908 -0.256196 4.84413e-17 -0.256196 0.813451 3.48846e-18 0 0 1)
(1.82619 -0.241733 1.58904e-18 -0.241733 0.80634 7.06157e-18 0 0 1)
(1.83288 -0.227073 -4.52807e-17 -0.227073 0.799645 9.60726e-18 0 0 1)