/*--------------------------------*- C++ -*----------------------------------*\
| =========                 |                                                 |
| \\      /  F ield         | OpenFOAM: The Open Source CFD Toolbox           |
|  \\    /   O peration     | Version:  2312                                  |
|   \\  /    A nd           | Website:  www.openfoam.com                      |
|    \\/     M anipulation  |                                                 |
\*---------------------------------------------------------------------------*/
FoamFile
{
    version     2.0;
    format      ascii;
    arch        "LSB;label=32;scalar=64";
    class       volSymmTensorField;
    location    "100";
    object      sigma;
}
// * * * * * * * * * * * * * * * * * * * * * * * * * * * * * * * * * * * * * //

dimensions      [1 -1 -2 0 0 0 0];

internalField   nonuniform List<symmTensor> 
12870
(
(-9.83231e+07 -2.39323e+06 2.00209e-11 2.36841e+08 -4.97849e-09 -2.92562e+07)
(-9.81864e+07 -7.17772e+06 -2.25673e-09 2.36704e+08 2.44148e-09 -2.92562e+07)
(-9.79132e+07 -1.19564e+07 3.15323e-09 2.36431e+08 5.0943e-09 -2.92562e+07)
(-9.75036e+07 -1.67253e+07 1.32114e-10 2.36021e+08 -2.48576e-09 -2.92562e+07)
(-9.6958e+07 -2.14805e+07 -1.27115e-09 2.35475e+08 2.41261e-09 -2.92562e+07)
(-9.62768e+07 -2.62182e+07 3.33825e-09 2.34794e+08 2.62726e-10 -2.92562e+07)
(-9.54606e+07 -3.09346e+07 -8.78089e-10 2.33978e+08 -2.58175e-09 -2.92562e+07)
(-9.451e+07 -3.56257e+07 1.97151e-09 2.33027e+08 2.71556e-09 -2.92562e+07)
(-9.34259e+07 -4.02878e+07 -6.02807e-10 2.31943e+08 4.94188e-09 -2.92562e+07)
(-9.22091e+07 -4.4917e+07 1.87778e-09 2.30727e+08 2.76865e-09 -2.92562e+07)
(-9.08606e+07 -4.95095e+07 2.58173e-09 2.29378e+08 -2.12747e-09 -2.92562e+07)
(-8.93815e+07 -5.40617e+07 2.71876e-09 2.27899e+08 -9.64227e-09 -2.92562e+07)
(-8.7773e+07 -5.85698e+07 -4.36836e-09 2.2629e+08 -7.88138e-10 -2.92562e+07)
(-8.60365e+07 -6.30301e+07 -1.14631e-09 2.24554e+08 -2.23763e-10 -2.92562e+07)
(-8.41733e+07 -6.7439e+07 -1.64509e-09 2.22691e+08 -2.88917e-09 -2.92562e+07)
(-8.21849e+07 -7.1793e+07 -3.83504e-09 2.20702e+08 6.79151e-09 -2.92562e+07)
(-8.0073e+07 -7.60883e+07 -5.88653e-10 2.1859e+08 2.41866e-09 -2.92562e+07)
(-7.78393e+07 -8.03216e+07 1.08653e-09 2.16357e+08 2.77321e-10 -2.92562e+07)
(-7.54857e+07 -8.44894e+07 1.72496e-09 2.14003e+08 -2.11211e-09 -2.92562e+07)
(-7.3014e+07 -8.85883e+07 6.91697e-10 2.11531e+08 -2.39123e-09 -2.92562e+07)
(-7.04262e+07 -9.26149e+07 0 2.08944e+08 0 -2.92562e+07)
(-6.77245e+07 -9.6566e+07 -1.81383e-09 2.06242e+08 2.0363e-09 -2.92562e+07)
(-6.49111e+07 -1.00438e+08 -1.57221e-09 2.03429e+08 4.72374e-09 -2.92562e+07)
(-6.19883e+07 -1.04229e+08 1.85658e-09 2.00506e+08 -1.98879e-09 -2.92562e+07)
(-5.89584e+07 -1.07934e+08 6.67612e-10 1.97476e+08 -5.05596e-09 -2.92562e+07)
(-5.58239e+07 -1.11551e+08 3.37114e-10 1.94341e+08 5.45634e-09 -2.92562e+07)
(-5.25875e+07 -1.15078e+08 3.88009e-09 1.91105e+08 -3.8149e-09 -2.92562e+07)
(-4.92516e+07 -1.1851e+08 -1.23789e-10 1.87769e+08 -5.43997e-09 -2.92562e+07)
(-4.58191e+07 -1.21846e+08 -1.05829e-09 1.84337e+08 -4.56169e-10 -2.92562e+07)
(-4.22927e+07 -1.25083e+08 -5.06324e-09 1.8081e+08 3.18669e-09 -2.92562e+07)
(-3.86754e+07 -1.28217e+08 -2.19565e-09 1.77193e+08 9.96056e-09 -2.92562e+07)
(-3.497e+07 -1.31247e+08 2.15069e-09 1.73487e+08 -4.49002e-09 -2.92562e+07)
(-3.11796e+07 -1.3417e+08 1.32305e-10 1.69697e+08 -2.71747e-09 -2.92562e+07)
(-2.73073e+07 -1.36983e+08 -2.14828e-09 1.65825e+08 1.69003e-09 -2.92562e+07)
(-2.33562e+07 -1.39685e+08 2.15851e-09 1.61874e+08 -1.66653e-09 -2.92562e+07)
(-1.93296e+07 -1.42273e+08 2.34991e-10 1.57847e+08 -2.71685e-09 -2.92562e+07)
(-1.52307e+07 -1.44744e+08 2.46552e-09 1.53748e+08 -4.32516e-09 -2.92562e+07)
(-1.10629e+07 -1.47098e+08 6.24955e-10 1.4958e+08 -5.41806e-09 -2.92562e+07)
(-6.8296e+06 -1.49332e+08 -6.41251e-09 1.45347e+08 1.90934e-09 -2.92562e+07)
(-2.53425e+06 -1.51444e+08 -7.21854e-09 1.41052e+08 7.21559e-09 -2.92562e+07)
(1.81966e+06 -1.53432e+08 1.852e-09 1.36698e+08 1.20898e-09 -2.92562e+07)
(6.22857e+06 -1.55295e+08 2.57564e-11 1.32289e+08 1.73432e-11 -2.92562e+07)
(1.06889e+07 -1.57032e+08 -1.00988e-09 1.27829e+08 5.35967e-09 -2.92562e+07)
(1.5197e+07 -1.5864e+08 2.88484e-09 1.2332e+08 -4.05752e-09 -2.92562e+07)
(1.97492e+07 -1.60119e+08 -8.77484e-10 1.18768e+08 -6.47152e-10 -2.92562e+07)
(2.43417e+07 -1.61468e+08 -1.23849e-09 1.14176e+08 5.31151e-09 -2.92562e+07)
(2.89709e+07 -1.62685e+08 0 1.09546e+08 0 -2.92562e+07)
(3.3633e+07 -1.63769e+08 3.98491e-09 1.04884e+08 -3.18259e-09 -2.92562e+07)
(3.83241e+07 -1.64719e+08 6.35779e-09 1.00193e+08 -7.66294e-09 -2.92562e+07)
(4.30405e+07 -1.65535e+08 6.87009e-10 9.54769e+07 -5.96041e-09 -2.92562e+07)
(4.77782e+07 -1.66217e+08 -2.52662e-09 9.07392e+07 -2.22111e-09 -2.92562e+07)
(5.25334e+07 -1.66762e+08 -7.48748e-09 8.5984e+07 3.29638e-09 -2.92562e+07)
(5.73023e+07 -1.67172e+08 -2.59445e-09 8.12151e+07 4.3867e-09 -2.92562e+07)
(6.2081e+07 -1.67445e+08 -1.60824e-09 7.64364e+07 -1.54078e-09 -2.92562e+07)
(6.68655e+07 -1.67582e+08 -4.29368e-09 7.16519e+07 2.75814e-09 -2.92562e+07)
(7.16519e+07 -1.67582e+08 4.90532e-09 6.68655e+07 1.43012e-09 -2.92562e+07)
(7.64364e+07 -1.67445e+08 2.14813e-11 6.2081e+07 2.24218e-11 -2.92562e+07)
(8.12151e+07 -1.67172e+08 3.612e-09 5.73023e+07 -3.42653e-09 -2.92562e+07)
(8.5984e+07 -1.66762e+08 -2.2153e-09 5.25334e+07 -2.44859e-09 -2.92562e+07)
(9.07392e+07 -1.66217e+08 -2.28914e-09 4.77782e+07 4.93644e-09 -2.92562e+07)
(9.54769e+07 -1.65535e+08 -2.5959e-09 4.30405e+07 7.93462e-10 -2.92562e+07)
(1.00193e+08 -1.64719e+08 4.50783e-09 3.83241e+07 -2.36368e-09 -2.92562e+07)
(1.04884e+08 -1.63769e+08 -1.28792e-10 3.3633e+07 -4.12695e-09 -2.92562e+07)
(1.09546e+08 -1.62685e+08 -4.52278e-09 2.89709e+07 6.33791e-09 -2.92562e+07)
(1.14176e+08 -1.61468e+08 6.87794e-10 2.43417e+07 9.0524e-10 -2.92562e+07)
(1.18768e+08 -1.60119e+08 -9.2152e-12 1.97492e+07 -1.2495e-11 -2.92562e+07)
(1.2332e+08 -1.5864e+08 2.68139e-09 1.5197e+07 -5.30531e-10 -2.92562e+07)
(1.27829e+08 -1.57032e+08 1.40076e-09 1.06889e+07 -2.34717e-09 -2.92562e+07)
(1.32289e+08 -1.55295e+08 6.19003e-09 6.22857e+06 -4.17745e-09 -2.92562e+07)
(1.36698e+08 -1.53432e+08 -6.59531e-09 1.81966e+06 -9.95579e-10 -2.92562e+07)
(1.41052e+08 -1.51444e+08 -3.63269e-09 -2.53425e+06 3.56991e-09 -2.92562e+07)
(1.45347e+08 -1.49332e+08 4.25299e-09 -6.8296e+06 -2.58803e-09 -2.92562e+07)
(1.4958e+08 -1.47098e+08 -3.12927e-09 -1.10629e+07 4.48252e-09 -2.92562e+07)
(1.53748e+08 -1.44744e+08 -2.17031e-09 -1.52307e+07 1.2193e-09 -2.92562e+07)
(1.57847e+08 -1.42273e+08 4.35238e-09 -1.93296e+07 -2.41708e-09 -2.92562e+07)
(1.61874e+08 -1.39685e+08 1.66653e-09 -2.33562e+07 -2.15851e-09 -2.92562e+07)
(1.65825e+08 -1.36983e+08 -5.1621e-10 -2.73073e+07 -9.95484e-10 -2.92562e+07)
(1.69697e+08 -1.3417e+08 -2.22248e-09 -3.11796e+07 1.12117e-09 -2.92562e+07)
(1.73487e+08 -1.31247e+08 1.45597e-09 -3.497e+07 3.01547e-09 -2.92562e+07)
(1.77193e+08 -1.28217e+08 6.55026e-12 -3.86754e+07 1.40762e-11 -2.92562e+07)
(1.8081e+08 -1.25083e+08 4.9891e-09 -4.22927e+07 -1.04077e-09 -2.92562e+07)
(1.84336e+08 -1.21846e+08 -5.43504e-09 -4.58191e+07 -3.18393e-11 -2.92562e+07)
(1.87769e+08 -1.1851e+08 1.25768e-09 -4.92516e+07 3.0363e-09 -2.92562e+07)
(1.91105e+08 -1.15078e+08 5.71662e-09 -5.25875e+07 -5.83457e-09 -2.92562e+07)
(1.94341e+08 -1.11551e+08 -4.6576e-09 -5.58239e+07 1.75856e-09 -2.92562e+07)
(1.97476e+08 -1.07934e+08 -2.3358e-09 -5.89584e+07 8.60523e-10 -2.92562e+07)
(2.00506e+08 -1.04229e+08 -4.33152e-09 -6.19883e+07 2.69832e-09 -2.92562e+07)
(2.03429e+08 -1.00438e+08 7.42747e-09 -6.49111e+07 -1.33116e-09 -2.92562e+07)
(2.06242e+08 -9.6566e+07 1.87686e-11 -6.77245e+07 5.91985e-11 -2.92562e+07)
(2.08944e+08 -9.26149e+07 -4.45655e-09 -7.04262e+07 2.46574e-09 -2.92562e+07)
(2.11531e+08 -8.85883e+07 -2.997e-10 -7.3014e+07 -1.04832e-09 -2.92562e+07)
(2.14003e+08 -8.44894e+07 5.77508e-10 -7.54857e+07 2.13495e-09 -2.92562e+07)
(2.16357e+08 -8.03216e+07 9.64772e-09 -7.78393e+07 -2.46243e-09 -2.92562e+07)
(2.1859e+08 -7.60883e+07 -5.35363e-09 -8.0073e+07 -9.73265e-10 -2.92562e+07)
(2.20702e+08 -7.1793e+07 -9.72092e-09 -8.21849e+07 2.15564e-09 -2.92562e+07)
(2.22691e+08 -6.7439e+07 5.79111e-09 -8.41733e+07 3.35096e-09 -2.92562e+07)
(2.24554e+08 -6.30301e+07 2.23276e-09 -8.60365e+07 -1.55465e-09 -2.92562e+07)
(2.2629e+08 -5.85698e+07 -4.8994e-09 -8.7773e+07 8.8395e-10 -2.92562e+07)
(2.27899e+08 -5.40617e+07 2.63528e-09 -8.93815e+07 6.76354e-10 -2.92562e+07)
(2.29378e+08 -4.95095e+07 9.67779e-09 -9.08606e+07 -2.59615e-09 -2.92562e+07)
(2.30727e+08 -4.4917e+07 -2.46113e-09 -9.22091e+07 3.75114e-10 -2.92562e+07)
(2.31943e+08 -4.02878e+07 -7.55141e-09 -9.34259e+07 -2.32022e-10 -2.92562e+07)
(2.33027e+08 -3.56257e+07 0 -9.451e+07 0 -2.92562e+07)
(2.33978e+08 -3.09346e+07 2.47782e-09 -9.54606e+07 -2.3845e-10 -2.92562e+07)
(2.34794e+08 -2.62182e+07 7.44413e-09 -9.62768e+07 -5.93653e-10 -2.92562e+07)
(2.35475e+08 -2.14805e+07 -2.62564e-09 -9.6958e+07 -2.03952e-09 -2.92562e+07)
(2.36021e+08 -1.67253e+07 -4.91782e-09 -9.75036e+07 1.33767e-09 -2.92562e+07)
(2.36431e+08 -1.19564e+07 7.46273e-09 -9.79132e+07 -2.743e-10 -2.92562e+07)
(2.36704e+08 -7.17772e+06 -4.73704e-11 -9.81864e+07 -2.21117e-09 -2.92562e+07)
(2.36841e+08 -2.39323e+06 -4.97849e-09 -9.83231e+07 2.00209e-11 -2.92562e+07)
(-9.7004e+07 -2.35977e+06 -1.12438e-09 2.33475e+08 -8.02816e-12 -2.85829e+07)
(-9.68693e+07 -7.07739e+06 -2.13855e-09 2.3334e+08 -4.90914e-09 -2.85829e+07)
(-9.65998e+07 -1.17892e+07 -8.29323e-13 2.3307e+08 -2.96033e-14 -2.85829e+07)
(-9.61959e+07 -1.64915e+07 -3.71927e-10 2.32667e+08 7.28383e-09 -2.85829e+07)
(-9.5658e+07 -2.11803e+07 -1.9518e-09 2.32129e+08 -4.99786e-09 -2.85829e+07)
(-9.49863e+07 -2.58518e+07 1.1352e-09 2.31457e+08 8.93423e-11 -2.85829e+07)
(-9.41815e+07 -3.05022e+07 -3.48968e-11 2.30652e+08 -3.24841e-12 -2.85829e+07)
(-9.32443e+07 -3.51277e+07 2.4537e-11 2.29715e+08 2.63803e-12 -2.85829e+07)
(-9.21753e+07 -3.97246e+07 -1.73491e-09 2.28646e+08 4.68662e-09 -2.85829e+07)
(-9.09755e+07 -4.42891e+07 1.42982e-09 2.27446e+08 -2.25848e-09 -2.85829e+07)
(-8.96458e+07 -4.88175e+07 -2.05059e-11 2.26116e+08 -3.0979e-12 -2.85829e+07)
(-8.81874e+07 -5.3306e+07 2.53765e-09 2.24658e+08 5.34904e-09 -2.85829e+07)
(-8.66014e+07 -5.77511e+07 -3.05046e-09 2.23072e+08 4.39035e-09 -2.85829e+07)
(-8.48891e+07 -6.21491e+07 -1.76717e-10 2.2136e+08 -4.98848e-09 -2.85829e+07)
(-8.3052e+07 -6.64964e+07 -3.25123e-09 2.19523e+08 -6.82987e-10 -2.85829e+07)
(-8.10914e+07 -7.07894e+07 -5.35638e-10 2.17562e+08 2.37136e-09 -2.85829e+07)
(-7.9009e+07 -7.50247e+07 1.13506e-09 2.1548e+08 -4.72787e-09 -2.85829e+07)
(-7.68066e+07 -7.91989e+07 1.68799e-09 2.13277e+08 -2.07821e-09 -2.85829e+07)
(-7.44858e+07 -8.33084e+07 -1.0954e-09 2.10956e+08 -2.96309e-10 -2.85829e+07)
(-7.20487e+07 -8.735e+07 -2.16218e-09 2.08519e+08 -6.1814e-10 -2.85829e+07)
(-6.94971e+07 -9.13203e+07 -6.94311e-10 2.05968e+08 2.32986e-09 -2.85829e+07)
(-6.68332e+07 -9.52161e+07 -2.87571e-09 2.03304e+08 1.63864e-09 -2.85829e+07)
(-6.40591e+07 -9.90343e+07 1.06686e-09 2.0053e+08 3.55086e-10 -2.85829e+07)
(-6.11771e+07 -1.02772e+08 1.05189e-09 1.97648e+08 3.6687e-10 -2.85829e+07)
(-5.81896e+07 -1.06425e+08 1.43202e-09 1.9466e+08 -7.24113e-09 -2.85829e+07)
(-5.50989e+07 -1.09992e+08 -1.68865e-10 1.9157e+08 -2.66606e-09 -2.85829e+07)
(-5.19077e+07 -1.13469e+08 -7.84839e-10 1.88378e+08 4.92037e-09 -2.85829e+07)
(-4.86185e+07 -1.16854e+08 -5.05945e-09 1.85089e+08 5.35717e-10 -2.85829e+07)
(-4.52339e+07 -1.20143e+08 -1.99231e-09 1.81705e+08 1.78856e-09 -2.85829e+07)
(-4.17568e+07 -1.23334e+08 1.01558e-09 1.78227e+08 -2.20894e-09 -2.85829e+07)
(-3.819e+07 -1.26425e+08 1.01497e-09 1.74661e+08 3.15374e-09 -2.85829e+07)
(-3.45365e+07 -1.29412e+08 9.4761e-10 1.71007e+08 3.15719e-09 -2.85829e+07)
(-3.0799e+07 -1.32294e+08 2.28101e-11 1.6727e+08 1.14179e-11 -2.85829e+07)
(-2.69808e+07 -1.35068e+08 1.10818e-09 1.63451e+08 -2.16387e-09 -2.85829e+07)
(-2.3085e+07 -1.37732e+08 1.16071e-09 1.59556e+08 -2.13616e-09 -2.85829e+07)
(-1.91147e+07 -1.40284e+08 -4.16984e-12 1.55585e+08 -2.31571e-12 -2.85829e+07)
(-1.50731e+07 -1.42721e+08 1.2171e-09 1.51544e+08 -2.10452e-09 -2.85829e+07)
(-1.09636e+07 -1.45042e+08 -4.38419e-09 1.47434e+08 3.05238e-09 -2.85829e+07)
(-6.78943e+06 -1.47244e+08 -4.43546e-09 1.4326e+08 2.98448e-09 -2.85829e+07)
(-2.55412e+06 -1.49327e+08 2.60417e-09 1.39025e+08 -4.10602e-09 -2.85829e+07)
(1.73893e+06 -1.51287e+08 6.41934e-09 1.34732e+08 -1.61599e-09 -2.85829e+07)
(6.08621e+06 -1.53124e+08 0 1.30384e+08 0 -2.85829e+07)
(1.04842e+07 -1.54837e+08 -9.3041e-10 1.25986e+08 5.27327e-09 -2.85829e+07)
(1.49293e+07 -1.56423e+08 -1.43335e-09 1.21541e+08 1.96374e-09 -2.85829e+07)
(1.94178e+07 -1.57881e+08 2.89429e-09 1.17053e+08 -3.90695e-09 -2.85829e+07)
(2.39462e+07 -1.59211e+08 -2.36449e-09 1.12524e+08 1.2567e-09 -2.85829e+07)
(2.85107e+07 -1.60411e+08 2.54846e-10 1.0796e+08 3.28646e-09 -2.85829e+07)
(3.31076e+07 -1.6148e+08 3.04281e-09 1.03363e+08 -3.79242e-09 -2.85829e+07)
(3.77331e+07 -1.62417e+08 -1.71904e-09 9.87375e+07 -1.42625e-09 -2.85829e+07)
(4.23835e+07 -1.63222e+08 -1.56098e-09 9.40871e+07 1.86391e-09 -2.85829e+07)
(4.7055e+07 -1.63893e+08 -2.5101e-09 8.94156e+07 -2.20659e-09 -2.85829e+07)
(5.17438e+07 -1.64431e+08 -8.5293e-10 8.47268e+07 -4.05007e-09 -2.85829e+07)
(5.64461e+07 -1.64835e+08 -2.47051e-09 8.00245e+07 1.02153e-09 -2.85829e+07)
(6.11579e+07 -1.65105e+08 -4.98347e-09 7.53127e+07 1.9591e-09 -2.85829e+07)
(6.58755e+07 -1.65239e+08 6.81275e-09 7.05951e+07 -6.9391e-09 -2.85829e+07)
(7.05951e+07 -1.65239e+08 5.04408e-09 6.58755e+07 -1.8092e-09 -2.85829e+07)
(7.53127e+07 -1.65105e+08 -1.01334e-08 6.11579e+07 3.47967e-09 -2.85829e+07)
(8.00245e+07 -1.64835e+08 -1.0286e-09 5.64461e+07 2.46292e-09 -2.85829e+07)
(8.47268e+07 -1.64431e+08 6.09003e-10 5.17438e+07 -6.57418e-09 -2.85829e+07)
(8.94156e+07 -1.63893e+08 1.48106e-09 4.7055e+07 1.68477e-09 -2.85829e+07)
(9.40871e+07 -1.63222e+08 -5.151e-09 4.23835e+07 1.45563e-09 -2.85829e+07)
(9.87375e+07 -1.62417e+08 2.13759e-09 3.77331e+07 2.5764e-09 -2.85829e+07)
(1.03363e+08 -1.6148e+08 1.68885e-09 3.31076e+07 -5.65319e-09 -2.85829e+07)
(1.0796e+08 -1.60411e+08 2.59939e-09 2.85107e+07 -6.23135e-10 -2.85829e+07)
(1.12524e+08 -1.59211e+08 -3.18837e-09 2.39462e+07 3.84063e-09 -2.85829e+07)
(1.17053e+08 -1.57881e+08 2.65157e-09 1.94178e+07 3.59531e-09 -2.85829e+07)
(1.21541e+08 -1.56423e+08 -6.4281e-10 1.49293e+07 -8.98168e-10 -2.85829e+07)
(1.25986e+08 -1.54837e+08 -1.13544e-11 1.04842e+07 -1.63534e-11 -2.85829e+07)
(1.30384e+08 -1.53124e+08 -1.23913e-09 6.08621e+06 -1.84023e-09 -2.85829e+07)
(1.34732e+08 -1.51287e+08 -3.86939e-09 1.73893e+06 -1.47999e-09 -2.85829e+07)
(1.39025e+08 -1.49327e+08 4.10347e-09 -2.55412e+06 -2.6082e-09 -2.85829e+07)
(1.4326e+08 -1.47244e+08 5.62712e-09 -6.78943e+06 -4.77591e-09 -2.85829e+07)
(1.47434e+08 -1.45042e+08 -5.31648e-09 -1.09636e+07 5.68256e-10 -2.85829e+07)
(1.51544e+08 -1.42721e+08 -5.22394e-09 -1.50731e+07 5.54899e-09 -2.85829e+07)
(1.55585e+08 -1.40284e+08 2.67493e-09 -1.91147e+07 -1.90699e-10 -2.85829e+07)
(1.59556e+08 -1.37732e+08 4.90436e-12 -2.3085e+07 9.13616e-12 -2.85829e+07)
(1.63451e+08 -1.35068e+08 2.15948e-09 -2.69808e+07 -1.11665e-09 -2.85829e+07)
(1.6727e+08 -1.32294e+08 6.51848e-09 -3.0799e+07 -3.27138e-09 -2.85829e+07)
(1.71007e+08 -1.29412e+08 4.88533e-10 -3.45365e+07 1.01181e-09 -2.85829e+07)
(1.74661e+08 -1.26425e+08 -3.4659e-09 -3.819e+07 4.0765e-09 -2.85829e+07)
(1.78227e+08 -1.23334e+08 4.5554e-10 -4.17568e+07 1.01664e-09 -2.85829e+07)
(1.81705e+08 -1.20143e+08 -1.32703e-09 -4.52339e+07 -3.07865e-09 -2.85829e+07)
(1.85089e+08 -1.16854e+08 -1.82476e-09 -4.86185e+07 1.94741e-09 -2.85829e+07)
(1.88378e+08 -1.13469e+08 5.89972e-12 -5.19077e+07 1.4839e-11 -2.85829e+07)
(1.9157e+08 -1.09992e+08 2.27439e-09 -5.50989e+07 -8.58753e-10 -2.85829e+07)
(1.9466e+08 -1.06425e+08 -3.85407e-10 -5.81896e+07 -1.05629e-09 -2.85829e+07)
(1.97648e+08 -1.02772e+08 -2.29642e-09 -6.11771e+07 7.97958e-10 -2.85829e+07)
(2.0053e+08 -9.90343e+07 4.95564e-09 -6.40591e+07 -5.07187e-10 -2.85829e+07)
(2.03304e+08 -9.52161e+07 1.37259e-11 -6.68332e+07 4.32932e-11 -2.85829e+07)
(2.05968e+08 -9.13203e+07 -6.6681e-09 -6.94971e+07 3.14957e-09 -2.85829e+07)
(2.08519e+08 -8.735e+07 2.02916e-09 -7.20487e+07 -1.74665e-09 -2.85829e+07)
(2.10956e+08 -8.33084e+07 3.51773e-09 -7.44858e+07 3.69407e-09 -2.85829e+07)
(2.13277e+08 -7.91989e+07 -2.78072e-10 -7.68066e+07 -1.08948e-09 -2.85829e+07)
(2.1548e+08 -7.50247e+07 -5.24446e-09 -7.9009e+07 -1.01673e-09 -2.85829e+07)
(2.17562e+08 -7.07894e+07 4.98047e-09 -8.10914e+07 -1.47684e-11 -2.85829e+07)
(2.19523e+08 -6.64964e+07 2.84386e-09 -8.3052e+07 1.71224e-09 -2.85829e+07)
(2.2136e+08 -6.21491e+07 -7.16057e-09 -8.48891e+07 1.3852e-09 -2.85829e+07)
(2.23072e+08 -5.77511e+07 0 -8.66014e+07 0 -2.85829e+07)
(2.24658e+08 -5.3306e+07 7.33586e-10 -8.81874e+07 4.42688e-09 -2.85829e+07)
(2.26116e+08 -4.88175e+07 7.20964e-09 -8.96458e+07 -1.10166e-09 -2.85829e+07)
(2.27446e+08 -4.42891e+07 -2.70574e-09 -9.09755e+07 -1.84686e-09 -2.85829e+07)
(2.28646e+08 -3.97246e+07 -7.10684e-09 -9.21753e+07 1.97194e-09 -2.85829e+07)
(2.29715e+08 -3.51277e+07 2.29779e-09 -9.32443e+07 -1.37031e-09 -2.85829e+07)
(2.30652e+08 -3.05022e+07 2.31572e-09 -9.41815e+07 -1.35243e-09 -2.85829e+07)
(2.31457e+08 -2.58518e+07 2.33598e-09 -9.49863e+07 -1.30413e-09 -2.85829e+07)
(2.32129e+08 -2.11803e+07 -1.43077e-10 -9.5658e+07 -2.22347e-09 -2.85829e+07)
(2.32667e+08 -1.64915e+07 5.56562e-11 -9.61959e+07 1.11264e-09 -2.85829e+07)
(2.3307e+08 -1.17892e+07 0 -9.65998e+07 0 -2.85829e+07)
(2.3334e+08 -7.07739e+06 -4.77215e-11 -9.68693e+07 -2.22756e-09 -2.85829e+07)
(2.33475e+08 -2.35977e+06 0 -9.7004e+07 0 -2.85829e+07)
(-9.49445e+07 -2.31847e+06 1.97578e-11 2.2975e+08 -2.36846e-09 -2.76924e+07)
(-9.48121e+07 -6.95352e+06 1.46357e-11 2.29617e+08 3.13532e-13 -2.76924e+07)
(-9.45474e+07 -1.15829e+07 -4.45184e-09 2.29353e+08 -1.58998e-10 -2.76924e+07)
(-9.41506e+07 -1.62028e+07 -2.32888e-09 2.28956e+08 2.25501e-09 -2.76924e+07)
(-9.3622e+07 -2.08095e+07 3.32691e-09 2.28427e+08 2.14082e-10 -2.76924e+07)
(-9.29621e+07 -2.53993e+07 -1.82185e-09 2.27767e+08 -4.89511e-09 -2.76924e+07)
(-9.21714e+07 -2.99683e+07 -1.12295e-09 2.26977e+08 -1.04532e-10 -2.76924e+07)
(-9.12506e+07 -3.45129e+07 -2.69406e-09 2.26056e+08 4.47474e-09 -2.76924e+07)
(-9.02003e+07 -3.90293e+07 8.10919e-10 2.25006e+08 2.48501e-09 -2.76924e+07)
(-8.90215e+07 -4.35139e+07 2.23931e-09 2.23827e+08 3.05661e-10 -2.76924e+07)
(-8.77151e+07 -4.7963e+07 1.04534e-09 2.2252e+08 -7.02833e-09 -2.76924e+07)
(-8.62822e+07 -5.2373e+07 7.97697e-10 2.21088e+08 -4.66949e-09 -2.76924e+07)
(-8.4724e+07 -5.67403e+07 4.97576e-10 2.19529e+08 9.7169e-09 -2.76924e+07)
(-8.30417e+07 -6.10613e+07 -4.75335e-10 2.17847e+08 2.32046e-09 -2.76924e+07)
(-8.12367e+07 -6.53325e+07 9.83813e-10 2.16042e+08 -4.6338e-09 -2.76924e+07)
(-7.93104e+07 -6.95504e+07 2.17518e-09 2.14116e+08 4.89473e-10 -2.76924e+07)
(-7.72645e+07 -7.37116e+07 1.07252e-09 2.1207e+08 2.57489e-10 -2.76924e+07)
(-7.51006e+07 -7.78127e+07 -5.64479e-10 2.09906e+08 2.3004e-09 -2.76924e+07)
(-7.28204e+07 -8.18503e+07 -1.23144e-09 2.07626e+08 4.57422e-09 -2.76924e+07)
(-7.04259e+07 -8.58211e+07 5.60591e-09 2.05231e+08 -3.32421e-09 -2.76924e+07)
(-6.7919e+07 -8.97219e+07 2.80325e-11 2.02724e+08 8.44899e-12 -2.76924e+07)
(-6.53017e+07 -9.35496e+07 1.04715e-09 2.00107e+08 3.31994e-10 -2.76924e+07)
(-6.25762e+07 -9.7301e+07 3.94049e-09 1.97382e+08 -1.18476e-09 -2.76924e+07)
(-5.97447e+07 -1.00973e+08 2.68383e-10 1.9455e+08 2.60207e-09 -2.76924e+07)
(-5.68094e+07 -1.04563e+08 -1.04993e-09 1.91615e+08 -3.83087e-10 -2.76924e+07)
(-5.37729e+07 -1.08067e+08 -2.0602e-09 1.88578e+08 -7.85218e-10 -2.76924e+07)
(-5.06375e+07 -1.11483e+08 -8.58813e-10 1.85443e+08 2.20743e-09 -2.76924e+07)
(-4.74058e+07 -1.14808e+08 5.25998e-12 1.82211e+08 2.17877e-12 -2.76924e+07)
(-4.40805e+07 -1.1804e+08 4.76313e-09 1.78886e+08 -8.26371e-09 -2.76924e+07)
(-4.06643e+07 -1.21176e+08 1.99401e-09 1.7547e+08 -1.70196e-09 -2.76924e+07)
(-3.716e+07 -1.24212e+08 -2.01184e-09 1.71965e+08 4.28866e-09 -2.76924e+07)
(-3.35703e+07 -1.27147e+08 -1.83099e-11 1.68376e+08 -8.84063e-12 -2.76924e+07)
(-2.98983e+07 -1.29979e+08 -6.3328e-11 1.64704e+08 2.61701e-09 -2.76924e+07)
(-2.61469e+07 -1.32704e+08 -1.10586e-09 1.60952e+08 2.0946e-09 -2.76924e+07)
(-2.23193e+07 -1.35322e+08 -8.4669e-10 1.57125e+08 -3.14274e-09 -2.76924e+07)
(-1.84184e+07 -1.37829e+08 2.12452e-09 1.53224e+08 -1.52943e-09 -2.76924e+07)
(-1.44476e+07 -1.40223e+08 0 1.49253e+08 0 -2.76924e+07)
(-1.041e+07 -1.42503e+08 1.92236e-09 1.45215e+08 1.14059e-09 -2.76924e+07)
(-6.30894e+06 -1.44667e+08 1.88854e-09 1.41114e+08 1.1573e-09 -2.76924e+07)
(-2.14776e+06 -1.46713e+08 2.50299e-09 1.36953e+08 -4.02197e-09 -2.76924e+07)
(2.07015e+06 -1.48639e+08 1.87924e-09 1.32735e+08 1.22676e-09 -2.76924e+07)
(6.34135e+06 -1.50444e+08 -2.65797e-09 1.28464e+08 3.92114e-09 -2.76924e+07)
(1.06623e+07 -1.52127e+08 -2.68964e-09 1.24143e+08 3.89949e-09 -2.76924e+07)
(1.50296e+07 -1.53685e+08 1.7939e-09 1.19776e+08 1.28387e-09 -2.76924e+07)
(1.94396e+07 -1.55118e+08 -2.28404e-09 1.15366e+08 1.25852e-09 -2.76924e+07)
(2.38887e+07 -1.56424e+08 -1.06844e-11 1.10917e+08 -8.11787e-12 -2.76924e+07)
(2.83733e+07 -1.57603e+08 3.23283e-09 1.06432e+08 -4.77688e-10 -2.76924e+07)
(3.28898e+07 -1.58653e+08 -3.84609e-09 1.01916e+08 2.9844e-09 -2.76924e+07)
(3.74343e+07 -1.59574e+08 6.04259e-09 9.7371e+07 -7.29705e-09 -2.76924e+07)
(4.20034e+07 -1.60365e+08 7.04157e-10 9.28019e+07 -2.51343e-09 -2.76924e+07)
(4.65931e+07 -1.61025e+08 -3.8685e-09 8.82122e+07 6.06012e-09 -2.76924e+07)
(5.11998e+07 -1.61553e+08 -7.54838e-10 8.36055e+07 2.51112e-09 -2.76924e+07)
(5.58198e+07 -1.6195e+08 -1.60444e-09 7.89856e+07 1.74239e-09 -2.76924e+07)
(6.04491e+07 -1.62215e+08 1.63327e-09 7.43562e+07 -1.71536e-09 -2.76924e+07)
(6.50842e+07 -1.62347e+08 4.9102e-09 6.97211e+07 -1.81134e-09 -2.76924e+07)
(6.97211e+07 -1.62347e+08 -6.58946e-09 6.50842e+07 3.43715e-09 -2.76924e+07)
(7.43562e+07 -1.62215e+08 -1.71761e-09 6.04491e+07 1.63092e-09 -2.76924e+07)
(7.89856e+07 -1.6195e+08 5.00322e-09 5.58198e+07 -1.57796e-09 -2.76924e+07)
(8.36055e+07 -1.61553e+08 9.98662e-10 5.11998e+07 -2.42657e-09 -2.76924e+07)
(8.82122e+07 -1.61025e+08 1.93306e-11 4.65931e+07 2.19894e-11 -2.76924e+07)
(9.28019e+07 -1.60365e+08 7.13433e-10 4.20034e+07 8.35323e-10 -2.76924e+07)
(9.7371e+07 -1.59574e+08 1.82387e-09 3.74343e+07 -1.51112e-09 -2.76924e+07)
(1.01916e+08 -1.58653e+08 -1.14756e-09 3.28898e+07 2.35072e-09 -2.76924e+07)
(1.06432e+08 -1.57603e+08 1.86703e-09 2.83733e+07 -1.45746e-09 -2.76924e+07)
(1.10917e+08 -1.56424e+08 5.65337e-09 2.38887e+07 -4.30457e-09 -2.76924e+07)
(1.15366e+08 -1.55118e+08 -2.48373e-09 1.94396e+07 4.61324e-09 -2.76924e+07)
(1.19776e+08 -1.53685e+08 -5.78771e-09 1.50296e+07 4.1222e-09 -2.76924e+07)
(1.24143e+08 -1.52127e+08 1.27738e-09 1.06623e+07 1.83977e-09 -2.76924e+07)
(1.28464e+08 -1.50444e+08 -1.2453e-09 6.34135e+06 -1.84939e-09 -2.76924e+07)
(1.32735e+08 -1.48639e+08 1.22432e-09 2.07015e+06 1.8755e-09 -2.76924e+07)
(1.36953e+08 -1.46713e+08 5.95119e-10 -2.14776e+06 9.40724e-10 -2.76924e+07)
(1.41114e+08 -1.44667e+08 -1.15496e-09 -6.30894e+06 -1.88473e-09 -2.76924e+07)
(1.45215e+08 -1.42503e+08 9.05933e-10 -1.041e+07 -3.11487e-09 -2.76924e+07)
(1.49253e+08 -1.40223e+08 5.21825e-09 -1.44476e+07 -4.25253e-10 -2.76924e+07)
(1.53224e+08 -1.37829e+08 5.3768e-10 -1.84184e+07 9.68187e-10 -2.76924e+07)
(1.57125e+08 -1.35322e+08 -5.33416e-10 -2.23193e+07 -9.93681e-10 -2.76924e+07)
(1.60952e+08 -1.32704e+08 5.09813e-10 -2.61469e+07 9.83146e-10 -2.76924e+07)
(1.64704e+08 -1.29979e+08 -1.00054e-09 -2.98983e+07 -1.99883e-09 -2.76924e+07)
(1.68376e+08 -1.27147e+08 3.29644e-09 -3.35703e+07 -4.06748e-09 -2.76924e+07)
(1.71965e+08 -1.24212e+08 3.7741e-12 -3.716e+07 8.11055e-12 -2.76924e+07)
(1.7547e+08 -1.21176e+08 -6.4874e-09 -4.06643e+07 2.89888e-09 -2.76924e+07)
(1.78886e+08 -1.1804e+08 -4.34614e-09 -4.40805e+07 1.88445e-09 -2.76924e+07)
(1.82211e+08 -1.14808e+08 6.55851e-09 -4.74058e+07 -2.73423e-09 -2.76924e+07)
(1.85443e+08 -1.11483e+08 4.8198e-09 -5.06375e+07 -6.99093e-10 -2.76924e+07)
(1.88578e+08 -1.08067e+08 -6.64232e-09 -5.37729e+07 2.52379e-09 -2.76924e+07)
(1.91615e+08 -1.04563e+08 -2.99025e-09 -5.68094e+07 -1.28533e-09 -2.76924e+07)
(1.9455e+08 -1.00973e+08 -7.32762e-10 -5.97447e+07 -2.10099e-09 -2.76924e+07)
(1.97382e+08 -9.7301e+07 7.08801e-09 -6.25762e+07 -1.20435e-09 -2.76924e+07)
(2.00107e+08 -9.35496e+07 -6.62267e-10 -6.53017e+07 -2.08888e-09 -2.76924e+07)
(2.02724e+08 -8.97219e+07 -6.48714e-09 -6.7919e+07 3.09957e-09 -2.76924e+07)
(2.05231e+08 -8.58211e+07 7.13309e-09 -7.04259e+07 -8.99685e-10 -2.76924e+07)
(2.07626e+08 -8.18503e+07 6.15842e-12 -7.28204e+07 2.27665e-11 -2.76924e+07)
(2.09906e+08 -7.78127e+07 -5.14746e-09 -7.51006e+07 -1.01284e-09 -2.76924e+07)
(2.1207e+08 -7.37116e+07 3.41745e-12 -7.72645e+07 1.42346e-11 -2.76924e+07)
(2.14116e+08 -6.95504e+07 4.85278e-10 -7.93104e+07 2.15654e-09 -2.76924e+07)
(2.16042e+08 -6.53325e+07 1.8641e-09 -8.12367e+07 -2.64739e-09 -2.76924e+07)
(2.17847e+08 -6.10613e+07 -2.53933e-09 -8.30417e+07 -6.45942e-10 -2.76924e+07)
(2.19529e+08 -5.67403e+07 4.85506e-09 -8.4724e+07 2.2998e-10 -2.76924e+07)
(2.21088e+08 -5.2373e+07 2.52039e-09 -8.62822e+07 7.214e-10 -2.76924e+07)
(2.2252e+08 -4.7963e+07 -4.52069e-09 -8.77151e+07 1.78819e-09 -2.76924e+07)
(2.23827e+08 -4.35139e+07 -2.99557e-10 -8.90215e+07 -2.19459e-09 -2.76924e+07)
(2.25006e+08 -3.90293e+07 -4.43227e-09 -9.02003e+07 2.78675e-09 -2.76924e+07)
(2.26056e+08 -3.45129e+07 -4.59095e-09 -9.12506e+07 1.61315e-09 -2.76924e+07)
(2.26977e+08 -2.99683e+07 2.4622e-09 -9.21714e+07 8.96126e-10 -2.76924e+07)
(2.27767e+08 -2.53993e+07 4.5479e-09 -9.29621e+07 -2.58991e-09 -2.76924e+07)
(2.28427e+08 -2.08095e+07 2.36412e-09 -9.3622e+07 -1.44793e-10 -2.76924e+07)
(2.28956e+08 -1.62028e+07 -1.11672e-10 -9.41506e+07 -2.23248e-09 -2.76924e+07)
(2.29353e+08 -1.15829e+07 0 -9.45474e+07 0 -2.76924e+07)
(2.29617e+08 -6.95352e+06 0 -9.48121e+07 0 -2.76924e+07)
(2.2975e+08 -2.31847e+06 0 -9.49445e+07 0 -2.76924e+07)
(-9.33745e+07 -2.28323e+06 -1.12626e-09 2.26384e+08 -8.04165e-12 -2.69707e+07)
(-9.32441e+07 -6.84782e+06 -8.48034e-11 2.26254e+08 4.62283e-09 -2.69707e+07)
(-9.29834e+07 -1.14068e+07 9.46328e-10 2.25993e+08 4.66034e-09 -2.69707e+07)
(-9.25926e+07 -1.59565e+07 4.53567e-10 2.25602e+08 -9.23605e-09 -2.69707e+07)
(-9.20721e+07 -2.04932e+07 2.52746e-09 2.25082e+08 -4.47051e-09 -2.69707e+07)
(-9.14222e+07 -2.50132e+07 -2.95119e-09 2.24432e+08 9.04351e-09 -2.69707e+07)
(-9.06436e+07 -2.95128e+07 -8.38812e-12 2.23653e+08 -7.80831e-13 -2.69707e+07)
(-8.97367e+07 -3.39883e+07 2.72815e-09 2.22746e+08 -4.35693e-09 -2.69707e+07)
(-8.87024e+07 -3.84361e+07 5.25821e-10 2.21712e+08 -4.59372e-09 -2.69707e+07)
(-8.75415e+07 -4.28525e+07 1.10444e-09 2.20551e+08 1.50754e-10 -2.69707e+07)
(-8.6255e+07 -4.7234e+07 3.69046e-09 2.19265e+08 5.23359e-09 -2.69707e+07)
(-8.48439e+07 -5.15769e+07 -2.18275e-09 2.17854e+08 -3.61708e-10 -2.69707e+07)
(-8.33093e+07 -5.58778e+07 -8.0693e-10 2.16319e+08 4.55265e-09 -2.69707e+07)
(-8.16526e+07 -6.01331e+07 -2.79316e-11 2.14662e+08 -5.45231e-12 -2.69707e+07)
(-7.9875e+07 -6.43394e+07 -1.37777e-10 2.12885e+08 -4.75345e-09 -2.69707e+07)
(-7.7978e+07 -6.84932e+07 0 2.10988e+08 0 -2.69707e+07)
(-7.59632e+07 -7.25911e+07 -1.09517e-09 2.08973e+08 -2.62928e-10 -2.69707e+07)
(-7.38322e+07 -7.66299e+07 0 2.06842e+08 0 -2.69707e+07)
(-7.15867e+07 -8.06061e+07 4.52288e-09 2.04597e+08 -8.35607e-09 -2.69707e+07)
(-6.92286e+07 -8.45166e+07 2.14349e-09 2.02238e+08 6.12796e-10 -2.69707e+07)
(-6.67598e+07 -8.83581e+07 -4.83333e-09 1.9977e+08 8.2013e-09 -2.69707e+07)
(-6.41823e+07 -9.21276e+07 1.36467e-09 1.97192e+08 -4.41774e-09 -2.69707e+07)
(-6.14982e+07 -9.58219e+07 -2.11031e-09 1.94508e+08 -7.02378e-10 -2.69707e+07)
(-5.87097e+07 -9.94381e+07 -4.10871e-09 1.9172e+08 8.36046e-09 -2.69707e+07)
(-5.58191e+07 -1.02973e+08 1.03133e-09 1.88829e+08 3.763e-10 -2.69707e+07)
(-5.28287e+07 -1.06424e+08 2.69369e-09 1.85838e+08 -3.92137e-09 -2.69707e+07)
(-4.9741e+07 -1.09789e+08 1.02799e-09 1.82751e+08 4.08709e-10 -2.69707e+07)
(-4.65584e+07 -1.13063e+08 2.0441e-09 1.79568e+08 8.46693e-10 -2.69707e+07)
(-4.32837e+07 -1.16246e+08 -1.0343e-09 1.76293e+08 -4.45828e-10 -2.69707e+07)
(-3.99194e+07 -1.19334e+08 1.82829e-11 1.72929e+08 8.19227e-12 -2.69707e+07)
(-3.64683e+07 -1.22324e+08 -1.93779e-09 1.69478e+08 4.19795e-09 -2.69707e+07)
(-3.29332e+07 -1.25215e+08 -7.58639e-12 1.65943e+08 -3.66294e-12 -2.69707e+07)
(-2.9317e+07 -1.28003e+08 2.54486e-11 1.62327e+08 1.27386e-11 -2.69707e+07)
(-2.56227e+07 -1.30687e+08 -3.12313e-09 1.58632e+08 3.58875e-09 -2.69707e+07)
(-2.18532e+07 -1.33265e+08 3.16664e-09 1.54863e+08 -3.54777e-09 -2.69707e+07)
(-1.80117e+07 -1.35734e+08 2.25721e-09 1.51021e+08 -4.0352e-09 -2.69707e+07)
(-1.41012e+07 -1.38092e+08 2.28992e-09 1.47111e+08 -4.01672e-09 -2.69707e+07)
(-1.0125e+07 -1.40337e+08 7.24509e-12 1.43135e+08 4.29869e-12 -2.69707e+07)
(-6.08624e+06 -1.42468e+08 -6.7352e-09 1.39096e+08 6.71801e-09 -2.69707e+07)
(-1.98831e+06 -1.44483e+08 2.45272e-09 1.34998e+08 -3.91947e-09 -2.69707e+07)
(2.16548e+06 -1.4638e+08 6.9368e-10 1.30844e+08 -5.06872e-09 -2.69707e+07)
(6.37175e+06 -1.48157e+08 -2.59424e-09 1.26638e+08 3.82723e-09 -2.69707e+07)
(1.06271e+07 -1.49814e+08 0 1.22383e+08 0 -2.69707e+07)
(1.4928e+07 -1.51349e+08 -8.80127e-10 1.18082e+08 5.05582e-09 -2.69707e+07)
(1.92709e+07 -1.5276e+08 -6.77994e-12 1.13739e+08 -5.00025e-12 -2.69707e+07)
(2.36524e+07 -1.54046e+08 7.2287e-09 1.09357e+08 -3.14458e-10 -2.69707e+07)
(2.80688e+07 -1.55207e+08 -2.83825e-09 1.04941e+08 3.64995e-09 -2.69707e+07)
(3.25166e+07 -1.56242e+08 1.7162e-09 1.00493e+08 1.383e-09 -2.69707e+07)
(3.69921e+07 -1.57148e+08 1.72466e-09 9.60177e+07 1.43092e-09 -2.69707e+07)
(4.14917e+07 -1.57927e+08 -1.68882e-09 9.15181e+07 -1.44239e-09 -2.69707e+07)
(4.60117e+07 -1.58577e+08 3.89423e-09 8.69981e+07 -2.73278e-09 -2.69707e+07)