/*--------------------------------*- C++ -*----------------------------------*\
| =========                 |                                                 |
| \\      /  F ield         | OpenFOAM: The Open Source CFD Toolbox           |
|  \\    /   O peration     | Version:  2312                                  |
|   \\  /    A nd           | Website:  www.openfoam.com                      |
|    \\/     M anipulation  |                                                 |
\*---------------------------------------------------------------------------*/
FoamFile
{
    version     2.0;
    format      ascii;
    arch        "LSB;label=32;scalar=64";
    class       volTensorField;
    location    "10";
    object      F;
}
// * * * * * * * * * * * * * * * * * * * * * * * * * * * * * * * * * * * * * //

dimensions      [0 0 0 0 0 0 0];

internalField   nonuniform List<tensor> 
12870
(
(0.976323 -0.000421924 4.59096e-21 -0.000421924 1.03541 -1.94037e-18 0 0 1)
(0.976348 -0.00126543 -1.33543e-18 -0.00126543 1.03539 9.41792e-19 0 0 1)
(0.976396 -0.0021079 1.91812e-18 -0.0021079 1.03534 2.0101e-18 0 0 1)
(0.976468 -0.00294865 5.30951e-20 -0.00294865 1.03527 -9.68736e-19 0 0 1)
(0.976564 -0.003787 -7.25354e-19 -0.003787 1.03517 9.2551e-19 0 0 1)
(0.976684 -0.00462226 1.99175e-18 -0.00462226 1.03505 1.56754e-19 0 0 1)
(0.976828 -0.00545375 -5.71642e-19 -0.00545375 1.03491 -1.02759e-18 0 0 1)
(0.976996 -0.00628079 1.23134e-18 -0.00628079 1.03474 1.10815e-18 0 0 1)
(0.977187 -0.0071027 -2.34942e-19 -0.0071027 1.03455 1.92608e-18 0 0 1)
(0.977401 -0.00791883 1.19002e-18 -0.00791883 1.03433 1.14161e-18 0 0 1)
(0.977639 -0.00872849 1.46344e-18 -0.00872849 1.0341 -7.601e-19 0 0 1)
(0.9779 -0.00953104 1.28535e-18 -0.00953104 1.03384 -3.72064e-18 0 0 1)
(0.978183 -0.0103258 -2.60636e-18 -0.0103258 1.03355 -4.70238e-19 0 0 1)
(0.97849 -0.0111122 -6.83937e-19 -0.0111122 1.03325 -1.33507e-19 0 0 1)
(0.978818 -0.0118895 -1.08741e-18 -0.0118895 1.03292 -1.21979e-18 0 0 1)
(0.979169 -0.012657 -1.94896e-18 -0.012657 1.03257 2.54475e-18 0 0 1)
(0.979541 -0.0134143 -2.30987e-19 -0.0134143 1.0322 9.42291e-19 0 0 1)
(0.979935 -0.0141606 6.48274e-19 -0.0141606 1.0318 1.65462e-19 0 0 1)
(0.98035 -0.0148954 8.94704e-19 -0.0148954 1.03139 -7.63028e-19 0 0 1)
(0.980785 -0.015618 2.71131e-19 -0.015618 1.03095 -9.31534e-19 0 0 1)
(0.981242 -0.0163279 0 -0.0163279 1.03049 0 0 0 1)
(0.981718 -0.0170245 -9.26561e-19 -0.0170245 1.03002 7.2401e-19 0 0 1)
(0.982214 -0.0177072 -6.12764e-19 -0.0177072 1.02952 1.84106e-18 0 0 1)
(0.982729 -0.0183754 9.38112e-19 -0.0183754 1.02901 -7.00307e-19 0 0 1)
(0.983263 -0.0190287 4.52642e-20 -0.0190287 1.02847 -2.04897e-18 0 0 1)
(0.983816 -0.0196664 5.67981e-19 -0.0196664 1.02792 2.29299e-18 0 0 1)
(0.984387 -0.0202881 1.93449e-18 -0.0202881 1.02735 -1.31898e-18 0 0 1)
(0.984975 -0.0208933 -4.68038e-19 -0.0208933 1.02676 -2.2941e-18 0 0 1)
(0.98558 -0.0214814 -6.31422e-19 -0.0214814 1.02616 -2.72171e-19 0 0 1)
(0.986202 -0.022052 -2.59976e-18 -0.022052 1.02553 9.61334e-19 0 0 1)
(0.986839 -0.0226046 -4.40877e-19 -0.0226046 1.0249 4.07515e-18 0 0 1)
(0.987493 -0.0231387 8.35331e-19 -0.0231387 1.02424 -1.75137e-18 0 0 1)
(0.988161 -0.023654 -1.51593e-19 -0.023654 1.02358 -1.16082e-18 0 0 1)
(0.988844 -0.02415 -1.04467e-18 -0.02415 1.02289 5.51143e-19 0 0 1)
(0.98954 -0.0246263 1.04428e-18 -0.0246263 1.0222 -5.40551e-19 0 0 1)
(0.99025 -0.0250826 -1.09838e-19 -0.0250826 1.02149 -1.17074e-18 0 0 1)
(0.990973 -0.0255183 9.58143e-19 -0.0255183 1.02076 -1.68732e-18 0 0 1)
(0.991707 -0.0259333 -1.52723e-19 -0.0259333 1.02003 -2.34681e-18 0 0 1)
(0.992454 -0.0263271 -3.28779e-18 -0.0263271 1.01928 2.60943e-19 0 0 1)
(0.993211 -0.0266994 -3.20554e-18 -0.0266994 1.01853 2.56418e-18 0 0 1)
(0.993979 -0.0270499 1.10498e-18 -0.0270499 1.01776 7.2133e-19 0 0 1)
(0.994756 -0.0273784 1.53674e-20 -0.0273784 1.01698 1.03477e-20 0 0 1)
(0.995542 -0.0276846 -1.50853e-20 -0.0276846 1.01619 2.35172e-18 0 0 1)
(0.996337 -0.0279682 1.12174e-18 -0.0279682 1.0154 -1.58328e-18 0 0 1)
(0.99714 -0.0282289 -5.23546e-19 -0.0282289 1.0146 -3.8612e-19 0 0 1)
(0.997949 -0.0284667 -1.15788e-19 -0.0284667 1.01379 2.34892e-18 0 0 1)
(0.998765 -0.0286812 0 -0.0286812 1.01297 0 0 0 1)
(0.999587 -0.0288723 1.73126e-18 -0.0288723 1.01215 -1.09684e-18 0 0 1)
(1.00041 -0.0290399 2.47793e-18 -0.0290399 1.01132 -2.98661e-18 0 0 1)
(1.00125 -0.0291838 -2.59058e-19 -0.0291838 1.01049 -2.773e-18 0 0 1)
(1.00208 -0.0293039 -1.50749e-18 -0.0293039 1.00966 -1.32521e-18 0 0 1)
(1.00292 -0.0294001 -3.43078e-18 -0.0294001 1.00882 8.21026e-19 0 0 1)
(1.00376 -0.0294723 -8.46075e-19 -0.0294723 1.00798 1.86342e-18 0 0 1)
(1.0046 -0.0295205 -9.59548e-19 -0.0295204 1.00713 -9.19297e-19 0 0 1)
(1.00545 -0.0295445 -1.83867e-18 -0.0295445 1.00629 9.12097e-19 0 0 1)
(1.00629 -0.0295445 2.55996e-18 -0.0295445 1.00545 1.21484e-18 0 0 1)
(1.00713 -0.0295205 1.28167e-20 -0.0295205 1.0046 1.33778e-20 0 0 1)
(1.00798 -0.0294723 1.4012e-18 -0.0294723 1.00376 -1.34253e-18 0 0 1)
(1.00882 -0.0294001 -1.32175e-18 -0.0294001 1.00292 -1.46094e-18 0 0 1)
(1.00966 -0.0293039 -5.92187e-19 -0.0293039 1.00208 2.26523e-18 0 0 1)
(1.01049 -0.0291838 -1.15721e-18 -0.0291838 1.00125 1.38936e-19 0 0 1)
(1.01132 -0.0290399 1.89685e-18 -0.0290399 1.00041 -7.52573e-19 0 0 1)
(1.01215 -0.0288723 -4.77859e-19 -0.0288723 0.999587 -2.13916e-18 0 0 1)
(1.01297 -0.0286812 -1.48172e-18 -0.0286812 0.998765 2.82928e-18 0 0 1)
(1.01379 -0.0284667 4.10369e-19 -0.0284667 0.997949 5.40107e-19 0 0 1)
(1.0146 -0.0282289 -5.49819e-21 -0.0282289 0.99714 -7.45508e-21 0 0 1)
(1.0154 -0.0279682 1.18103e-18 -0.0279682 0.996337 -1.67998e-20 0 0 1)
(1.01619 -0.0276846 4.12705e-19 -0.0276846 0.995542 -1.1067e-18 0 0 1)
(1.01698 -0.0273784 2.41165e-18 -0.0273784 0.994756 -1.62948e-18 0 0 1)
(1.01776 -0.0270499 -3.07252e-18 -0.0270499 0.993979 -1.15706e-18 0 0 1)
(1.01853 -0.0266994 -1.29695e-18 -0.0266994 0.993211 1.57928e-18 0 0 1)
(1.01928 -0.0263271 1.65927e-18 -0.0263271 0.992454 -1.00594e-18 0 0 1)
(1.02003 -0.0259333 -9.8121e-19 -0.0259333 0.991707 2.14887e-18 0 0 1)
(1.02076 -0.0255183 -8.4827e-19 -0.0255183 0.990973 4.71039e-19 0 0 1)
(1.02149 -0.0250826 1.69633e-18 -0.0250826 0.99025 -9.4205e-19 0 0 1)
(1.0222 -0.0246263 5.4055e-19 -0.0246263 0.98954 -1.04428e-18 0 0 1)
(1.02289 -0.02415 -3.07994e-19 -0.02415 0.988844 -5.9395e-19 0 0 1)
(1.02358 -0.023654 -8.65485e-19 -0.023654 0.988161 4.3841e-19 0 0 1)
(1.02424 -0.0231387 8.68694e-19 -0.0231387 0.987493 1.79917e-18 0 0 1)
(1.0249 -0.0226046 3.90817e-21 -0.0226046 0.986839 8.39849e-21 0 0 1)
(1.02553 -0.022052 2.03673e-18 -0.022052 0.986202 -1.99774e-19 0 0 1)
(1.02616 -0.0214814 -2.29688e-18 -0.0214814 0.98558 -4.26725e-19 0 0 1)
(1.02676 -0.0208933 7.50386e-19 -0.0208933 0.984975 1.81159e-18 0 0 1)
(1.02735 -0.0202881 1.97504e-18 -0.0202881 0.984387 -2.91034e-18 0 0 1)
(1.02792 -0.0196664 -1.81643e-18 -0.0196664 0.983816 6.82393e-19 0 0 1)
(1.02847 -0.0190287 -9.09819e-19 -0.0190287 0.983263 3.36895e-19 0 0 1)
(1.02901 -0.0183754 -1.61179e-18 -0.0183754 0.982729 1.27073e-18 0 0 1)
(1.02952 -0.0177072 2.96557e-18 -0.0177072 0.982214 -3.06301e-19 0 0 1)
(1.03002 -0.0170245 1.11982e-20 -0.0170245 0.981718 3.53205e-20 0 0 1)
(1.03049 -0.0163279 -1.67275e-18 -0.0163279 0.981242 1.17393e-18 0 0 1)
(1.03095 -0.015618 -1.78814e-19 -0.015618 0.980785 -6.25471e-19 0 0 1)
(1.03139 -0.0148954 3.44567e-19 -0.0148954 0.98035 1.27381e-18 0 0 1)
(1.0318 -0.0141606 3.76017e-18 -0.0141606 0.979935 -9.59726e-19 0 0 1)
(1.0322 -0.0134143 -2.19263e-18 -0.0134143 0.979541 -8.21151e-19 0 0 1)
(1.03257 -0.012657 -3.79011e-18 -0.012657 0.979169 8.33885e-19 0 0 1)
(1.03292 -0.0118895 2.44719e-18 -0.0118895 0.978818 2.21109e-18 0 0 1)
(1.03325 -0.0111122 8.26686e-19 -0.0111122 0.97849 -8.28899e-19 0 0 1)
(1.03355 -0.0103258 -1.90953e-18 -0.0103258 0.978183 3.44517e-19 0 0 1)
(1.03384 -0.00953104 1.06423e-18 -0.00953104 0.9779 4.8774e-19 0 0 1)
(1.0341 -0.00872849 3.73723e-18 -0.00872849 0.977639 -1.24124e-18 0 0 1)
(1.03433 -0.00791883 -9.58133e-19 -0.00791883 0.977401 1.54156e-19 0 0 1)
(1.03455 -0.0071027 -2.97182e-18 -0.0071027 0.977187 -3.25513e-19 0 0 1)
(1.03474 -0.00628079 0 -0.00628079 0.976996 0 0 0 1)
(1.03491 -0.00545375 9.65573e-19 -0.00545375 0.976828 -9.45342e-20 0 0 1)
(1.03505 -0.00462226 2.9012e-18 -0.00462226 0.976684 -2.32975e-19 0 0 1)
(1.03517 -0.003787 -1.05262e-18 -0.003787 0.976564 -1.24994e-18 0 0 1)
(1.03527 -0.00294865 -1.90543e-18 -0.00294865 0.976468 7.46656e-19 0 0 1)
(1.03534 -0.0021079 2.90852e-18 -0.0021079 0.976396 -1.08513e-19 0 0 1)
(1.03539 -0.00126543 -2.82633e-20 -0.00126543 0.976348 -1.31928e-18 0 0 1)
(1.03541 -0.000421924 -1.94037e-18 -0.000421924 0.976323 4.59096e-21 0 0 1)
(0.976898 -0.000411959 -6.61971e-19 -0.000411959 1.03459 -4.72654e-21 0 0 1)
(0.976921 -0.00123554 -1.28035e-18 -0.00123554 1.03457 -1.89687e-18 0 0 1)
(0.976968 -0.00205812 -4.8826e-22 -0.00205812 1.03452 -1.74321e-23 0 0 1)
(0.977039 -0.00287901 -1.44512e-19 -0.00287901 1.03445 2.7998e-18 0 0 1)
(0.977133 -0.00369756 -1.21292e-18 -0.00369756 1.03436 -1.95093e-18 0 0 1)
(0.97725 -0.00451309 6.68346e-19 -0.00451309 1.03424 5.25999e-20 0 0 1)
(0.97739 -0.00532494 -2.05453e-20 -0.00532494 1.0341 -1.9125e-21 0 0 1)
(0.977554 -0.00613245 1.4446e-20 -0.00613245 1.03393 1.55312e-21 0 0 1)
(0.977741 -0.00693496 -9.01116e-19 -0.00693496 1.03375 1.77295e-18 0 0 1)
(0.97795 -0.00773181 7.74611e-19 -0.00773181 1.03354 -8.3744e-19 0 0 1)
(0.978182 -0.00852235 -1.20727e-20 -0.00852235 1.03331 -1.82387e-21 0 0 1)
(0.978437 -0.00930595 1.65647e-18 -0.00930595 1.03305 2.169e-18 0 0 1)
(0.978714 -0.0100819 -1.61953e-18 -0.010082 1.03278 1.607e-18 0 0 1)
(0.979013 -0.0108497 -2.94401e-19 -0.0108497 1.03248 -1.96176e-18 0 0 1)
(0.979333 -0.0116087 -1.91415e-18 -0.0116087 1.03216 -4.02106e-19 0 0 1)
(0.979676 -0.0123581 -2.0629e-19 -0.0123581 1.03181 9.11455e-19 0 0 1)
(0.980039 -0.0130975 4.36313e-19 -0.0130975 1.03145 -1.81737e-18 0 0 1)
(0.980424 -0.0138262 8.70938e-19 -0.0138262 1.03107 -7.42173e-19 0 0 1)
(0.980829 -0.0145436 -6.44915e-19 -0.0145436 1.03066 -1.74451e-19 0 0 1)
(0.981254 -0.0152492 -1.27298e-18 -0.0152492 1.03023 -3.63928e-19 0 0 1)
(0.9817 -0.0159423 -2.6541e-19 -0.0159423 1.02979 8.96037e-19 0 0 1)
(0.982165 -0.0166224 -1.54292e-18 -0.0166224 1.02932 4.91176e-19 0 0 1)
(0.982649 -0.017289 6.28112e-19 -0.017289 1.02884 2.09056e-19 0 0 1)
(0.983152 -0.0179415 6.19298e-19 -0.0179415 1.02834 2.15993e-19 0 0 1)
(0.983674 -0.0185793 3.3224e-19 -0.0185793 1.02782 -2.86308e-18 0 0 1)
(0.984213 -0.019202 -2.7635e-19 -0.019202 1.02728 -1.10541e-18 0 0 1)
(0.98477 -0.019809 -9.49868e-20 -0.019809 1.02672 1.97355e-18 0 0 1)
(0.985345 -0.0203998 -2.78861e-18 -0.0203998 1.02614 -1.43578e-19 0 0 1)
(0.985935 -0.0209741 -9.76316e-19 -0.0209741 1.02555 5.96791e-19 0 0 1)
(0.986543 -0.0215312 3.94776e-19 -0.0215312 1.02495 -8.47141e-19 0 0 1)
(0.987165 -0.0220707 8.07157e-19 -0.0220707 1.02432 1.40634e-18 0 0 1)
(0.987803 -0.0225923 7.73909e-19 -0.0225923 1.02369 1.4114e-18 0 0 1)
(0.988455 -0.0230954 1.34294e-20 -0.0230954 1.02303 6.72226e-21 0 0 1)
(0.989122 -0.0235797 4.23743e-19 -0.0235797 1.02237 -8.32946e-19 0 0 1)
(0.989802 -0.0240447 4.48395e-19 -0.0240447 1.02169 -8.19938e-19 0 0 1)
(0.990495 -0.0244902 -2.45498e-21 -0.0244902 1.02099 -1.36336e-21 0 0 1)
(0.991201 -0.0249157 4.69191e-19 -0.0249157 1.02029 -8.08198e-19 0 0 1)
(0.991918 -0.0253208 -2.07418e-18 -0.0253208 1.01957 9.42572e-19 0 0 1)
(0.992647 -0.0257053 -2.09221e-18 -0.0257053 1.01884 9.09923e-19 0 0 1)
(0.993386 -0.0260688 1.002e-18 -0.0260688 1.0181 -1.57773e-18 0 0 1)
(0.994136 -0.0264111 3.23623e-18 -0.0264111 1.01735 -1.19403e-19 0 0 1)
(0.994895 -0.0267318 0 -0.0267318 1.01659 0 0 0 1)
(0.995663 -0.0270308 1.88924e-20 -0.0270308 1.01583 2.28846e-18 0 0 1)
(0.996439 -0.0273076 -5.5475e-19 -0.0273076 1.01505 7.52154e-19 0 0 1)
(0.997222 -0.0275622 1.11426e-18 -0.0275622 1.01427 -1.50056e-18 0 0 1)
(0.998013 -0.0277944 -1.09154e-18 -0.0277944 1.01348 3.44307e-19 0 0 1)
(0.99881 -0.0280038 4.56208e-19 -0.0280038 1.01268 1.54365e-18 0 0 1)
(0.999612 -0.0281904 1.168e-18 -0.0281904 1.01188 -1.45912e-18 0 0 1)
(1.00042 -0.0283541 -1.01208e-18 -0.0283541 1.01107 -8.39699e-19 0 0 1)
(1.00123 -0.0284945 -5.96376e-19 -0.0284945 1.01026 7.19605e-19 0 0 1)
(1.00205 -0.0286118 -1.47781e-18 -0.0286118 1.00944 -1.29912e-18 0 0 1)
(1.00287 -0.0287057 -8.35458e-19 -0.0287057 1.00862 -2.01607e-18 0 0 1)
(1.00369 -0.0287762 -1.11598e-18 -0.0287762 1.0078 2.3782e-19 0 0 1)
(1.00451 -0.0288233 -2.24663e-18 -0.0288233 1.00698 4.3595e-19 0 0 1)
(1.00533 -0.0288468 2.6159e-18 -0.0288468 1.00616 -2.67022e-18 0 0 1)
(1.00616 -0.0288468 2.26211e-18 -0.0288468 1.00533 -3.67618e-19 0 0 1)
(1.00698 -0.0288233 -4.53105e-18 -0.0288233 1.00451 6.73908e-19 0 0 1)
(1.0078 -0.0287762 -2.4198e-19 -0.0287762 1.00369 1.11151e-18 0 0 1)
(1.00862 -0.0287057 -3.78249e-19 -0.0287057 1.00287 -3.20393e-18 0 0 1)
(1.00944 -0.0286118 8.71966e-19 -0.0286118 1.00205 9.91903e-19 0 0 1)
(1.01026 -0.0284945 -2.2771e-18 -0.0284945 1.00123 2.1171e-19 0 0 1)
(1.01107 -0.0283541 1.2585e-18 -0.0283541 1.00042 1.51685e-18 0 0 1)
(1.01188 -0.0281904 2.20653e-19 -0.0281904 0.999612 -2.70484e-18 0 0 1)
(1.01268 -0.0280038 1.13914e-18 -0.0280038 0.99881 -6.06997e-20 0 0 1)
(1.01348 -0.0277944 -1.086e-18 -0.0277944 0.998013 1.66005e-18 0 0 1)
(1.01427 -0.0275622 1.5611e-18 -0.0275622 0.997222 2.11673e-18 0 0 1)
(1.01505 -0.0273076 -3.78452e-19 -0.0273076 0.996439 -5.28793e-19 0 0 1)
(1.01583 -0.0270308 -6.68484e-21 -0.0270308 0.995663 -9.628e-21 0 0 1)
(1.01659 -0.0267318 -7.29531e-19 -0.0267318 0.994895 -1.08343e-18 0 0 1)
(1.01735 -0.0264111 -1.86209e-18 -0.0264111 0.994136 -1.14291e-18 0 0 1)
(1.0181 -0.0260688 1.57623e-18 -0.0260688 0.993386 -1.00437e-18 0 0 1)
(1.01884 -0.0257053 2.04218e-18 -0.0257053 0.992647 -2.03307e-18 0 0 1)
(1.01957 -0.0253208 -2.27555e-18 -0.0253208 0.991918 -1.72441e-19 0 0 1)
(1.02029 -0.0249157 -1.78309e-18 -0.0249157 0.991201 2.52482e-18 0 0 1)
(1.02099 -0.0244902 1.14054e-18 -0.0244902 0.990495 1.28923e-19 0 0 1)
(1.02169 -0.0240447 2.88742e-21 -0.0240447 0.989802 5.37887e-21 0 0 1)
(1.02237 -0.0235797 8.30361e-19 -0.0235797 0.989122 -4.28728e-19 0 0 1)
(1.02303 -0.0230954 2.50499e-18 -0.0230954 0.988455 -1.25889e-18 0 0 1)
(1.02369 -0.0225923 2.87622e-19 -0.0225923 0.987803 5.95698e-19 0 0 1)
(1.02432 -0.0220707 -1.1397e-18 -0.0220707 0.987165 1.98083e-18 0 0 1)
(1.02495 -0.0215312 2.68197e-19 -0.0215312 0.986543 5.98543e-19 0 0 1)
(1.02555 -0.0209741 -7.81285e-19 -0.0209741 0.985935 -1.81254e-18 0 0 1)
(1.02614 -0.0203998 -6.15344e-19 -0.0203998 0.985345 9.56415e-19 0 0 1)
(1.02672 -0.019809 3.47344e-21 -0.019809 0.98477 8.73642e-21 0 0 1)
(1.02728 -0.019202 8.7482e-19 -0.019202 0.984213 -3.28656e-19 0 0 1)
(1.02782 -0.0185793 -2.26907e-19 -0.0185793 0.983674 -6.21886e-19 0 0 1)
(1.02834 -0.0179415 -8.82923e-19 -0.0179415 0.983152 3.06192e-19 0 0 1)
(1.02884 -0.017289 1.97487e-18 -0.017289 0.982649 1.51713e-20 0 0 1)
(1.02932 -0.0166224 8.08105e-21 -0.0166224 0.982165 2.54887e-20 0 0 1)
(1.02979 -0.0159423 -2.49884e-18 -0.0159423 0.9817 1.42421e-18 0 0 1)
(1.03023 -0.0152492 7.16999e-19 -0.0152492 0.981254 -8.91776e-19 0 0 1)
(1.03066 -0.0145436 1.59149e-18 -0.0145436 0.980829 2.30459e-18 0 0 1)
(1.03107 -0.0138262 -1.63714e-19 -0.0138262 0.980424 -6.41425e-19 0 0 1)
(1.03145 -0.0130975 -2.12152e-18 -0.0130975 0.980039 -8.30543e-19 0 0 1)
(1.03181 -0.0123581 1.96288e-18 -0.0123581 0.979676 2.09435e-19 0 0 1)
(1.03216 -0.0116087 1.18813e-18 -0.0116087 0.979333 1.11021e-18 0 0 1)
(1.03248 -0.0108497 -2.75298e-18 -0.0108497 0.979013 5.2999e-19 0 0 1)
(1.03278 -0.0100819 0 -0.0100819 0.978714 0 0 0 1)
(1.03305 -0.00930595 4.31896e-19 -0.00930595 0.978437 2.60631e-18 0 0 1)
(1.03331 -0.00852235 2.77098e-18 -0.00852235 0.978182 -4.25969e-19 0 0 1)
(1.03354 -0.00773181 -1.10076e-18 -0.00773181 0.97795 -1.15452e-18 0 0 1)
(1.03375 -0.00693496 -2.7047e-18 -0.00693496 0.977741 9.80515e-19 0 0 1)
(1.03393 -0.00613245 8.58866e-19 -0.00613245 0.977554 -7.53659e-19 0 0 1)
(1.0341 -0.00532494 8.68714e-19 -0.00532494 0.97739 -7.50192e-19 0 0 1)
(1.03424 -0.00451309 8.80037e-19 -0.00451309 0.97725 -7.28825e-19 0 0 1)
(1.03436 -0.00369756 -8.42359e-20 -0.00369756 0.977133 -1.30906e-18 0 0 1)
(1.03445 -0.00287901 3.27673e-20 -0.00287901 0.977039 6.55064e-19 0 0 1)
(1.03452 -0.00205812 0 -0.00205812 0.976968 0 0 0 1)
(1.03457 -0.00123554 -2.80958e-20 -0.00123554 0.976921 -1.31147e-18 0 0 1)
(1.03459 -0.000411959 0 -0.000411959 0.976898 0 0 0 1)
(0.977721 -0.000400492 8.08041e-21 -0.000400492 1.03381 -9.00799e-19 0 0 1)
(0.977744 -0.00120115 8.47574e-21 -0.00120115 1.03379 1.81573e-22 0 0 1)
(0.977789 -0.00200083 -2.57812e-18 -0.00200083 1.03374 -9.20779e-20 0 0 1)
(0.977858 -0.00279887 -1.32516e-18 -0.00279887 1.03367 8.35673e-19 0 0 1)
(0.977949 -0.00359463 1.92666e-18 -0.00359463 1.03358 1.23978e-19 0 0 1)
(0.978063 -0.00438746 -1.12894e-18 -0.00438746 1.03347 -1.89609e-18 0 0 1)
(0.9782 -0.00517671 -6.50314e-19 -0.00517671 1.03333 -6.05359e-20 0 0 1)
(0.978359 -0.00596174 -1.45951e-18 -0.00596174 1.03317 1.65514e-18 0 0 1)
(0.97854 -0.00674191 5.26622e-19 -0.00674191 1.03299 9.71748e-19 0 0 1)
(0.978744 -0.00751658 1.29682e-18 -0.00751658 1.03279 1.77013e-19 0 0 1)
(0.978969 -0.00828512 3.94382e-19 -0.00828512 1.03256 -2.67359e-18 0 0 1)
(0.979217 -0.0090469 3.08016e-19 -0.0090469 1.03231 -1.7752e-18 0 0 1)
(0.979486 -0.0098013 6.22537e-19 -0.0098013 1.03204 3.77383e-18 0 0 1)
(0.979777 -0.0105477 -1.8507e-19 -0.0105477 1.03175 8.8171e-19 0 0 1)
(0.980089 -0.0112855 3.76154e-19 -0.0112855 1.03144 -1.76197e-18 0 0 1)
(0.980421 -0.0120141 1.25968e-18 -0.0120141 1.03111 2.83461e-19 0 0 1)
(0.980775 -0.0127329 6.21111e-19 -0.0127329 1.03075 1.49116e-19 0 0 1)
(0.981149 -0.0134413 -2.1046e-19 -0.0134413 1.03038 8.75996e-19 0 0 1)
(0.981542 -0.0141388 -4.67264e-19 -0.0141388 1.02999 1.74002e-18 0 0 1)
(0.981956 -0.0148247 2.98763e-18 -0.0148247 1.02957 -1.01972e-18 0 0 1)
(0.982389 -0.0154985 1.6234e-20 -0.0154985 1.02914 4.89292e-21 0 0 1)
(0.982841 -0.0161597 6.06422e-19 -0.0161597 1.02869 1.92262e-19 0 0 1)
(0.983312 -0.0168077 2.13331e-18 -0.0168077 1.02822 -2.39385e-19 0 0 1)
(0.983801 -0.017442 3.10473e-19 -0.017442 1.02773 1.06233e-18 0 0 1)
(0.984308 -0.0180621 -6.08029e-19 -0.0180621 1.02722 -2.21851e-19 0 0 1)
(0.984833 -0.0186674 -1.19309e-18 -0.0186674 1.0267 -4.54731e-19 0 0 1)
(0.985374 -0.0192576 -3.23405e-19 -0.0192576 1.02615 8.40841e-19 0 0 1)
(0.985932 -0.019832 3.04613e-21 -0.019832 1.0256 1.26175e-21 0 0 1)
(0.986507 -0.0203902 2.01292e-18 -0.0203902 1.02502 -3.05617e-18 0 0 1)
(0.987097 -0.0209318 9.62236e-19 -0.0209318 1.02443 -5.55972e-19 0 0 1)
(0.987702 -0.0214563 -7.67808e-19 -0.0214563 1.02383 1.62989e-18 0 0 1)
(0.988322 -0.0219634 -1.06035e-20 -0.0219634 1.02321 -5.11973e-21 0 0 1)
(0.988957 -0.0224525 1.74074e-19 -0.0224525 1.02257 1.09453e-18 0 0 1)
(0.989605 -0.0229233 -4.2368e-19 -0.0229233 1.02192 7.95047e-19 0 0 1)
(0.990266 -0.0233754 -7.13015e-19 -0.0233754 1.02126 -1.40517e-18 0 0 1)
(0.99094 -0.0238085 1.00175e-18 -0.0238085 1.02059 -4.74104e-19 0 0 1)
(0.991626 -0.0242221 0 -0.0242221 1.0199 0 0 0 1)
(0.992323 -0.024616 1.11327e-18 -0.024616 1.01921 6.60532e-19 0 0 1)
(0.993032 -0.0249897 1.09368e-18 -0.0249897 1.0185 6.70209e-19 0 0 1)
(0.99375 -0.0253432 9.46093e-19 -0.0253432 1.01778 -1.5334e-18 0 0 1)
(0.994479 -0.0256759 1.0883e-18 -0.0256759 1.01705 7.10436e-19 0 0 1)
(0.995217 -0.0259877 -1.01333e-18 -0.0259877 1.01631 1.48971e-18 0 0 1)
(0.995963 -0.0262783 -1.02057e-18 -0.0262783 1.01557 1.48476e-18 0 0 1)
(0.996718 -0.0265475 1.03887e-18 -0.0265475 1.01481 7.43509e-19 0 0 1)
(0.997479 -0.026795 -1.04326e-18 -0.026795 1.01405 3.4991e-19 0 0 1)
(0.998248 -0.0270207 -6.18747e-21 -0.0270207 1.01328 -4.70118e-21 0 0 1)
(0.999023 -0.0272243 1.58202e-18 -0.0272243 1.01251 9.41466e-20 0 0 1)
(0.999803 -0.0274057 -1.63647e-18 -0.0274057 1.01173 9.95106e-19 0 0 1)
(1.00059 -0.0275648 2.29683e-18 -0.0275648 1.01094 -2.77644e-18 0 0 1)
(1.00138 -0.0277013 1.02013e-19 -0.0277013 1.01015 -1.09755e-18 0 0 1)
(1.00217 -0.0278153 -1.30774e-18 -0.0278153 1.00936 2.44866e-18 0 0 1)
(1.00297 -0.0279066 -1.21264e-19 -0.0279066 1.00856 1.10509e-18 0 0 1)
(1.00376 -0.0279752 -6.08329e-19 -0.0279752 1.00777 6.6445e-19 0 0 1)
(1.00456 -0.0280209 6.20135e-19 -0.0280209 1.00697 -6.53415e-19 0 0 1)
(1.00536 -0.0280438 2.18249e-18 -0.0280438 1.00616 -3.78394e-19 0 0 1)
(1.00616 -0.0280438 -2.81018e-18 -0.0280438 1.00536 9.98897e-19 0 0 1)
(1.00697 -0.0280209 -6.54718e-19 -0.0280209 1.00456 6.18775e-19 0 0 1)
(1.00777 -0.0279752 2.20825e-18 -0.0279752 1.00376 -2.72168e-19 0 0 1)
(1.00856 -0.0279066 2.29201e-19 -0.0279066 1.00297 -1.08939e-18 0 0 1)
(1.00936 -0.0278153 1.11946e-20 -0.0278153 1.00217 1.27344e-20 0 0 1)
(1.01015 -0.0277013 4.13159e-19 -0.0277013 1.00138 4.83747e-19 0 0 1)
(1.01094 -0.0275648 6.93885e-19 -0.0275648 1.00059 -5.74479e-19 0 0 1)
(1.01173 -0.0274057 -2.97964e-19 -0.0274057 0.999803 1.06591e-18 0 0 1)
(1.01251 -0.0272243 7.10442e-19 -0.0272243 0.999023 -5.53873e-19 0 0 1)
(1.01328 -0.0270207 2.14928e-18 -0.0270207 0.998248 -1.63833e-18 0 0 1)
(1.01405 -0.026795 -6.80531e-19 -0.026795 0.997479 2.11268e-18 0 0 1)
(1.01481 -0.0265475 -2.20314e-18 -0.0265475 0.996718 1.56518e-18 0 0 1)
(1.01557 -0.0262783 7.39746e-19 -0.0262783 0.995963 1.06544e-18 0 0 1)
(1.01631 -0.0259877 -7.21169e-19 -0.0259877 0.995217 -1.07101e-18 0 0 1)
(1.01705 -0.0256759 7.0902e-19 -0.0256759 0.994479 1.08613e-18 0 0 1)
(1.01778 -0.0253432 3.44642e-19 -0.0253432 0.99375 5.44787e-19 0 0 1)
(1.0185 -0.0249897 -6.68856e-19 -0.0249897 0.993032 -1.09147e-18 0 0 1)
(1.01921 -0.024616 1.19725e-19 -0.024616 0.992323 -1.56362e-18 0 0 1)
(1.0199 -0.0242221 2.20536e-18 -0.0242221 0.991626 2.22609e-19 0 0 1)
(1.02059 -0.0238085 3.11378e-19 -0.0238085 0.99094 5.60691e-19 0 0 1)
(1.02126 -0.0233754 -3.08909e-19 -0.0233754 0.990266 -5.75455e-19 0 0 1)
(1.02192 -0.0229233 2.9524e-19 -0.0229233 0.989605 5.69354e-19 0 0 1)
(1.02257 -0.0224525 -5.7943e-19 -0.0224525 0.988957 -1.15755e-18 0 0 1)
(1.02321 -0.0219634 1.06104e-18 -0.0219634 0.988322 -1.94611e-18 0 0 1)
(1.02383 -0.0214563 2.18565e-21 -0.0214563 0.987702 4.69693e-21 0 0 1)
(1.02443 -0.0209318 -2.46797e-18 -0.0209318 0.987097 1.10121e-18 0 0 1)
(1.02502 -0.0203902 -1.65218e-18 -0.0203902 0.986507 7.18573e-19 0 0 1)
(1.0256 -0.019832 2.49318e-18 -0.019832 0.985932 -1.0429e-18 0 0 1)
(1.02615 -0.0192576 1.91619e-18 -0.0192576 0.985374 -5.69625e-20 0 0 1)
(1.0267 -0.0186674 -2.52681e-18 -0.0186674 0.984833 9.58521e-19 0 0 1)
(1.02722 -0.0180621 -1.2894e-18 -0.0180621 0.984308 -9.05734e-19 0 0 1)
(1.02773 -0.017442 -4.24353e-19 -0.017442 0.983801 -1.21671e-18 0 0 1)
(1.02822 -0.0168077 2.76458e-18 -0.0168077 0.983312 -2.51398e-19 0 0 1)
(1.02869 -0.0161597 -3.83528e-19 -0.0161597 0.982841 -1.2097e-18 0 0 1)
(1.02914 -0.0154985 -2.40442e-18 -0.0154985 0.982389 1.3874e-18 0 0 1)
(1.02957 -0.0148247 2.77281e-18 -0.0148247 0.981956 -1.32769e-19 0 0 1)
(1.02999 -0.0141388 3.56642e-21 -0.0141388 0.981542 1.31844e-20 0 0 1)
(1.03038 -0.0134413 -2.06857e-18 -0.0134413 0.981149 -8.19426e-19 0 0 1)
(1.03075 -0.0127329 1.97909e-21 -0.0127329 0.980775 8.24345e-21 0 0 1)
(1.03111 -0.0120141 2.81031e-19 -0.0120141 0.980421 1.24888e-18 0 0 1)
(1.03144 -0.0112855 6.18761e-19 -0.0112855 0.980089 -1.43635e-18 0 0 1)
(1.03175 -0.0105477 -1.00846e-18 -0.0105477 0.979777 -4.64278e-19 0 0 1)
(1.03204 -0.0098013 1.88495e-18 -0.0098013 0.979486 3.00376e-19 0 0 1)
(1.03231 -0.0090469 9.95103e-19 -0.0090469 0.979217 4.94744e-19 0 0 1)
(1.03256 -0.00828512 -1.68691e-18 -0.00828512 0.978969 8.94902e-19 0 0 1)
(1.03279 -0.00751658 -1.73478e-19 -0.00751658 0.978744 -1.27092e-18 0 0 1)
(1.03299 -0.00674191 -1.63207e-18 -0.00674191 0.97854 1.49983e-18 0 0 1)
(1.03317 -0.00596174 -1.72243e-18 -0.00596174 0.978359 8.33543e-19 0 0 1)
(1.03333 -0.00517671 9.57099e-19 -0.00517671 0.9782 5.62598e-19 0 0 1)
(1.03347 -0.00438746 1.69501e-18 -0.00438746 0.978063 -1.42597e-18 0 0 1)
(1.03358 -0.00359463 8.99246e-19 -0.00359463 0.977949 -5.36175e-20 0 0 1)
(1.03367 -0.00279887 -6.46708e-20 -0.00279887 0.977858 -1.29286e-18 0 0 1)
(1.03374 -0.00200083 0 -0.00200083 0.977789 0 0 0 1)
(1.03379 -0.00120115 0 -0.00120115 0.977744 0 0 0 1)
(1.03381 -0.000400492 0 -0.000400492 0.977721 0 0 0 1)
(0.978371 -0.000390457 -6.42623e-19 -0.000390457 1.03305 -4.5884e-21 0 0 1)
(0.978393 -0.00117105 -2.90995e-20 -0.00117105 1.03303 1.73738e-18 0 0 1)
(0.978438 -0.00195069 5.72097e-19 -0.00195069 1.03299 1.75915e-18 0 0 1)
(0.978505 -0.00272874 1.68818e-19 -0.00272874 1.03292 -3.47112e-18 0 0 1)
(0.978594 -0.00350457 1.38429e-18 -0.00350457 1.03283 -1.65213e-18 0 0 1)
(0.978705 -0.00427754 -1.54258e-18 -0.00427754 1.03272 3.36456e-18 0 0 1)
(0.978838 -0.00504701 -4.78609e-21 -0.00504701 1.03259 -4.45525e-22 0 0 1)
(0.978993 -0.00581237 1.46036e-18 -0.00581237 1.03243 -1.59062e-18 0 0 1)
(0.97917 -0.00657299 1.90987e-19 -0.00657299 1.03225 -1.72719e-18 0 0 1)
(0.979368 -0.00732825 6.30171e-19 -0.00732825 1.03206 8.60172e-20 0 0 1)
(0.979588 -0.00807754 2.24022e-18 -0.00807754 1.03184 2.09576e-18 0 0 1)
(0.97983 -0.00882023 -1.24543e-18 -0.00882023 1.03159 -2.06383e-19 0 0 1)
(0.980092 -0.00955573 -3.00528e-19 -0.00955573 1.03133 1.71144e-18 0 0 1)
(0.980375 -0.0102834 -1.59372e-20 -0.0102834 1.03105 -3.11099e-21 0 0 1)
(0.980679 -0.0110028 -2.63744e-19 -0.0110028 1.03074 -1.83094e-18 0 0 1)
(0.981004 -0.0117131 0 -0.0117131 1.03042 0 0 0 1)
(0.981348 -0.0124139 -6.24883e-19 -0.0124139 1.03008 -1.50021e-19 0 0 1)
(0.981713 -0.0131046 0 -0.0131046 1.02971 0 0 0 1)
(0.982097 -0.0137845 2.11038e-18 -0.0137845 1.02933 -3.02925e-18 0 0 1)
(0.9825 -0.0144533 1.22303e-18 -0.0144533 1.02892 3.49649e-19 0 0 1)
(0.982922 -0.0151102 -2.23807e-18 -0.0151102 1.0285 2.95508e-18 0 0 1)
(0.983363 -0.0157548 5.06502e-19 -0.0157548 1.02806 -1.66226e-18 0 0 1)
(0.983822 -0.0163866 -1.2041e-18 -0.0163866 1.0276 -4.00763e-19 0 0 1)
(0.984299 -0.017005 -1.75124e-18 -0.017005 1.02713 3.06974e-18 0 0 1)
(0.984793 -0.0176096 5.88455e-19 -0.0176096 1.02663 2.14709e-19 0 0 1)
(0.985305 -0.0181997 1.21625e-18 -0.0181997 1.02612 -1.39598e-18 0 0 1)
(0.985833 -0.0187751 5.8655e-19 -0.0187751 1.02559 2.33201e-19 0 0 1)
(0.986377 -0.0193351 1.16632e-18 -0.0193351 1.02505 4.83106e-19 0 0 1)
(0.986937 -0.0198793 -5.90149e-19 -0.0198793 1.02449 -2.5438e-19 0 0 1)
(0.987512 -0.0204074 1.04318e-20 -0.0204074 1.02391 4.67434e-21 0 0 1)
(0.988102 -0.0209188 -7.25735e-19 -0.0209188 1.02332 1.57882e-18 0 0 1)
(0.988707 -0.0214131 -4.32864e-21 -0.0214131 1.02272 -2.09e-21 0 0 1)
(0.989325 -0.02189 1.45204e-20 -0.02189 1.0221 7.26839e-21 0 0 1)
(0.989957 -0.022349 -1.36745e-18 -0.022349 1.02147 1.24824e-18 0 0 1)
(0.990602 -0.0227897 1.3809e-18 -0.0227897 1.02082 -1.23086e-18 0 0 1)
(0.991259 -0.0232119 8.50713e-19 -0.0232119 1.02017 -1.51514e-18 0 0 1)
(0.991927 -0.0236152 8.5818e-19 -0.0236152 1.0195 -1.51092e-18 0 0 1)
(0.992607 -0.0239992 4.1339e-21 -0.0239992 1.01882 2.45275e-21 0 0 1)
(0.993298 -0.0243636 -2.90193e-18 -0.0243636 1.01813 2.29753e-18 0 0 1)
(0.993999 -0.0247082 9.18038e-19 -0.0247082 1.01743 -1.47535e-18 0 0 1)
(0.994709 -0.0250326 -9.64528e-20 -0.0250326 1.01671 -2.13804e-18 0 0 1)
(0.995429 -0.0253366 -9.7725e-19 -0.0253366 1.016 1.43678e-18 0 0 1)
(0.996156 -0.0256199 0 -0.0256199 1.01527 0 0 0 1)
(0.996892 -0.0258823 2.19124e-20 -0.0258823 1.01453 2.15246e-18 0 0 1)
(0.997634 -0.0261236 -3.8685e-21 -0.0261236 1.01379 -2.85304e-21 0 0 1)
(0.998384 -0.0263437 3.57975e-18 -0.0263437 1.01304 5.37606e-19 0 0 1)
(0.999139 -0.0265422 -1.06447e-18 -0.0265422 1.01229 1.37341e-18 0 0 1)
(0.9999 -0.026719 9.79227e-19 -0.026719 1.01152 7.89111e-19 0 0 1)
(1.00066 -0.0268741 9.84055e-19 -0.0268741 1.01076 8.16451e-19 0 0 1)
(1.00143 -0.0270073 -9.63604e-19 -0.0270073 1.00999 -8.22996e-19 0 0 1)
(1.00221 -0.0271184 1.62741e-18 -0.0271184 1.00922 -8.8293e-19 0 0 1)
(1.00298 -0.0272074 4.68073e-19 -0.0272074 1.00844 4.23476e-19 0 0 1)
(1.00376 -0.0272743 -1.18646e-18 -0.0272743 1.00766 1.26949e-18 0 0 1)
(1.00454 -0.0273189 9.08107e-19 -0.0273189 1.00688 8.70014e-19 0 0 1)
(1.00532 -0.0273412 1.67516e-18 -0.0273412 1.0061 -7.88583e-19 0 0 1)
(1.0061 -0.0273412 0 -0.0273412 1.00532 0 0 0 1)
(1.00688 -0.0273189 1.74668e-18 -0.0273189 1.00454 1.82316e-18 0 0 1)
(1.00766 -0.0272743 -8.36098e-19 -0.0272743 1.00376 1.65196e-18 0 0 1)
(1.00844 -0.0272074 8.43727e-19 -0.0272074 1.00298 9.32581e-19 0 0 1)
(1.00922 -0.0271184 1.3104e-18 -0.0271184 1.00221 -1.14114e-18 0 0 1)
(1.00999 -0.0270073 -4.96142e-19 -0.0270073 1.00143 2.09461e-18 0 0 1)
(1.01076 -0.0268741 -8.16451e-19 -0.0268741 1.00066 -9.84055e-19 0 0 1)
(1.01152 -0.026719 2.55343e-18 -0.0267191 0.9999 3.99381e-19 0 0 1)
(1.01229 -0.0265422 3.89005e-19 -0.0265422 0.999139 4.9709e-19 0 0 1)
(1.01304 -0.0263437 0 -0.0263437 0.998384 0 0 0 1)
(1.01379 -0.0261236 -7.49303e-19 -0.0261236 0.997634 -1.01599e-18 0 0 1)
(1.01453 -0.0258823 1.47609e-18 -0.0258823 0.996892 2.06247e-18 0 0 1)
(1.01527 -0.0256199 -3.36182e-19 -0.0256199 0.996156 2.56252e-18 0 0 1)
(1.016 -0.0253366 -9.06948e-21 -0.0253366 0.995429 -1.34691e-20 0 0 1)
(1.01671 -0.0250326 2.50083e-18 -0.0250326 0.994709 6.52203e-19 0 0 1)
(1.01743 -0.0247082 -1.47021e-18 -0.0247082 0.993999 9.26163e-19 0 0 1)
(1.01813 -0.0243636 3.27294e-19 -0.0243636 0.993298 5.34095e-19 0 0 1)
(1.01882 -0.0239992 2.14268e-18 -0.0239992 0.992607 2.06028e-19 0 0 1)
(1.0195 -0.0236152 0 -0.0236152 0.991927 0 0 0 1)
(1.02017 -0.0232119 -2.78222e-19 -0.0232119 0.991259 3.078e-18 0 0 1)
(1.02082 -0.0227897 -2.27347e-21 -0.0227897 0.990602 -4.23514e-21 0 0 1)
(1.02147 -0.022349 7.47501e-21 -0.022349 0.989957 1.44152e-20 0 0 1)
(1.0221 -0.02189 -2.1516e-21 -0.02189 0.989325 -4.29834e-21 0 0 1)
(1.02272 -0.0214131 1.56829e-18 -0.0214131 0.988707 -7.48206e-19 0 0 1)
(1.02332 -0.0209188 -5.32612e-19 -0.0209188 0.988102 -1.14456e-18 0 0 1)
(1.02391 -0.0204074 5.20889e-19 -0.0204074 0.987512 1.16248e-18 0 0 1)