/*--------------------------------*- C++ -*----------------------------------*\
| =========                 |                                                 |
| \\      /  F ield         | OpenFOAM: The Open Source CFD Toolbox           |
|  \\    /   O peration     | Version:  2312                                  |
|   \\  /    A nd           | Website:  www.openfoam.com                      |
|    \\/     M anipulation  |                                                 |
\*---------------------------------------------------------------------------*/
FoamFile
{
    version     2.0;
    format      ascii;
    arch        "LSB;label=32;scalar=64";
    class       pointVectorField;
    location    "10";
    object      pointD;
}
// * * * * * * * * * * * * * * * * * * * * * * * * * * * * * * * * * * * * * //

dimensions      [0 1 0 0 0 0 0];

internalField   nonuniform List<vector> 
26196
(
(0.250852 0 0)
(0.179214 0 0)
(0 0.250852 0)
(0 0.179214 0)
(0.250852 0 0)
(0.179214 0 0)
(0 0.179214 0)
(0 0.250852 0)
(0.248484 0 0)
(0.246182 0 0)
(0.243972 0 0)
(0.241821 0 0)
(0.239742 0 0)
(0.237725 0 0)
(0.235772 0 0)
(0.233878 0 0)
(0.232042 0 0)
(0.230262 0 0)
(0.228536 0 0)
(0.226862 0 0)
(0.225239 0 0)
(0.223664 0 0)
(0.222135 0 0)
(0.220653 0 0)
(0.219214 0 0)
(0.217818 0 0)
(0.216463 0 0)
(0.215148 0 0)
(0.213872 0 0)
(0.212633 0 0)
(0.211431 0 0)
(0.210263 0 0)
(0.20913 0 0)
(0.20803 0 0)
(0.206963 0 0)
(0.205926 0 0)
(0.20492 0 0)
(0.203943 0 0)
(0.202995 0 0)
(0.202074 0 0)
(0.201181 0 0)
(0.200314 0 0)
(0.199473 0 0)
(0.198656 0 0)
(0.197864 0 0)
(0.197095 0 0)
(0.196349 0 0)
(0.195625 0 0)
(0.194924 0 0)
(0.194243 0 0)
(0.193583 0 0)
(0.192943 0 0)
(0.192323 0 0)
(0.191722 0 0)
(0.191139 0 0)
(0.190575 0 0)
(0.190029 0 0)
(0.189499 0 0)
(0.188987 0 0)
(0.188491 0 0)
(0.188012 0 0)
(0.187548 0 0)
(0.187099 0 0)
(0.186665 0 0)
(0.186247 0 0)
(0.185842 0 0)
(0.185451 0 0)
(0.185075 0 0)
(0.184711 0 0)
(0.184361 0 0)
(0.184023 0 0)
(0.183698 0 0)
(0.183385 0 0)
(0.183084 0 0)
(0.182795 0 0)
(0.182518 0 0)
(0.182251 0 0)
(0.181996 0 0)
(0.181751 0 0)
(0.181517 0 0)
(0.181294 0 0)
(0.18108 0 0)
(0.180877 0 0)
(0.180683 0 0)
(0.180498 0 0)
(0.180323 0 0)
(0.180157 0 0)
(0.180001 0 0)
(0.179853 0 0)
(0.179713 0 0)
(0.179582 0 0)
(0.179459 0 0)
(0.179345 0 0)
(0.179238 0 0)
(0.17914 0 0)
(0.179049 0 0)
(0.178965 0 0)
(0.178889 0 0)
(0.178821 0 0)
(0.178759 0 0)
(0.178705 0 0)
(0.178657 0 0)
(0.178616 0 0)
(0.178582 0 0)
(0.178554 0 0)
(0.178533 0 0)
(0.178518 0 0)
(0.178509 0 0)
(0.178507 0 0)
(0.17851 0 0)
(0.178519 0 0)
(0.178534 0 0)
(0.178555 0 0)
(0.178581 0 0)
(0.178613 0 0)
(0.17865 0 0)
(0.178692 0 0)
(0.17874 0 0)
(0.178793 0 0)
(0.178851 0 0)
(0.178914 0 0)
(0.178982 0 0)
(0.179054 0 0)
(0.179132 0 0)
(0.179196 0.00255909 0)
(0.179141 0.00511766 0)
(0.17905 0.00767518 0)
(0.178922 0.0102311 0)
(0.178758 0.012785 0)
(0.178557 0.0153363 0)
(0.17832 0.0178844 0)
(0.178046 0.0204289 0)
(0.177736 0.0229692 0)
(0.17739 0.0255049 0)
(0.177008 0.0280353 0)
(0.17659 0.03056 0)
(0.176135 0.0330785 0)
(0.175645 0.0355903 0)
(0.175119 0.0380948 0)
(0.174557 0.0405915 0)
(0.17396 0.0430799 0)
(0.173327 0.0455596 0)
(0.172658 0.04803 0)
(0.171955 0.0504905 0)
(0.171216 0.0529408 0)
(0.170443 0.0553803 0)
(0.169635 0.0578085 0)
(0.168792 0.0602249 0)
(0.167915 0.062629 0)
(0.167003 0.0650204 0)
(0.166058 0.0673985 0)
(0.165079 0.0697628 0)
(0.164066 0.0721129 0)
(0.163019 0.0744484 0)
(0.161939 0.0767686 0)
(0.160827 0.0790732 0)
(0.159681 0.0813617 0)
(0.158503 0.0836335 0)
(0.157293 0.0858883 0)
(0.15605 0.0881256 0)
(0.154776 0.090345 0)
(0.15347 0.0925459 0)
(0.152133 0.0947279 0)
(0.150765 0.0968906 0)
(0.149366 0.0990336 0)
(0.147936 0.101156 0)
(0.146477 0.103259 0)
(0.144988 0.10534 0)
(0.143469 0.107399 0)
(0.14192 0.109437 0)
(0.140343 0.111452 0)
(0.138737 0.113445 0)
(0.137103 0.115415 0)
(0.135441 0.11736 0)
(0.133752 0.119283 0)
(0.132035 0.12118 0)
(0.130291 0.123053 0)
(0.12852 0.124901 0)
(0.126724 0.126724 0)
(0.124901 0.12852 0)
(0.123053 0.130291 0)
(0.12118 0.132035 0)
(0.119283 0.133752 0)
(0.11736 0.135441 0)
(0.115414 0.137103 0)
(0.113445 0.138737 0)
(0.111452 0.140343 0)
(0.109437 0.14192 0)
(0.107399 0.143469 0)
(0.10534 0.144988 0)
(0.103259 0.146477 0)
(0.101156 0.147936 0)
(0.0990336 0.149366 0)
(0.0968906 0.150765 0)
(0.0947279 0.152133 0)
(0.0925459 0.15347 0)
(0.090345 0.154776 0)
(0.0881256 0.15605 0)
(0.0858883 0.157293 0)
(0.0836335 0.158503 0)
(0.0813617 0.159681 0)
(0.0790732 0.160827 0)
(0.0767686 0.161939 0)
(0.0744484 0.163019 0)
(0.0721129 0.164066 0)
(0.0697628 0.165079 0)
(0.0673985 0.166058 0)
(0.0650204 0.167003 0)
(0.062629 0.167915 0)
(0.0602249 0.168792 0)
(0.0578085 0.169635 0)
(0.0553803 0.170443 0)
(0.0529408 0.171216 0)
(0.0504905 0.171955 0)
(0.04803 0.172658 0)
(0.0455596 0.173327 0)
(0.0430799 0.17396 0)
(0.0405915 0.174557 0)
(0.0380948 0.175119 0)
(0.0355903 0.175645 0)
(0.0330785 0.176135 0)
(0.03056 0.17659 0)
(0.0280353 0.177008 0)
(0.0255049 0.17739 0)
(0.0229692 0.177736 0)
(0.0204289 0.178046 0)
(0.0178844 0.17832 0)
(0.0153363 0.178557 0)
(0.012785 0.178758 0)
(0.0102311 0.178922 0)
(0.00767518 0.17905 0)
(0.00511766 0.179141 0)
(0.00255909 0.179196 0)
(0 0.179132 0)
(0 0.179054 0)
(0 0.178982 0)
(0 0.178914 0)
(0 0.178851 0)
(0 0.178793 0)
(0 0.17874 0)
(0 0.178692 0)
(0 0.17865 0)
(0 0.178613 0)
(0 0.178581 0)
(0 0.178555 0)
(0 0.178534 0)
(0 0.178519 0)
(0 0.17851 0)
(0 0.178507 0)
(0 0.178509 0)
(0 0.178518 0)
(0 0.178533 0)
(0 0.178554 0)
(0 0.178582 0)
(0 0.178616 0)
(0 0.178657 0)
(0 0.178705 0)
(0 0.178759 0)
(0 0.178821 0)
(0 0.178889 0)
(0 0.178965 0)
(0 0.179049 0)
(0 0.17914 0)
(0 0.179238 0)
(0 0.179345 0)
(0 0.179459 0)
(0 0.179582 0)
(0 0.179713 0)
(0 0.179853 0)
(0 0.180001 0)
(0 0.180157 0)
(0 0.180323 0)
(0 0.180498 0)
(0 0.180683 0)
(0 0.180877 0)
(0 0.18108 0)
(0 0.181294 0)
(0 0.181517 0)
(0 0.181751 0)
(0 0.181996 0)
(0 0.182251 0)
(0 0.182518 0)
(0 0.182795 0)
(0 0.183084 0)
(0 0.183385 0)
(0 0.183698 0)
(0 0.184023 0)
(0 0.184361 0)
(0 0.184711 0)
(0 0.185075 0)
(0 0.185451 0)
(0 0.185842 0)
(0 0.186247 0)
(0 0.186665 0)
(0 0.187099 0)
(0 0.187548 0)
(0 0.188012 0)
(0 0.188491 0)
(0 0.188987 0)
(0 0.189499 0)
(0 0.190029 0)
(0 0.190575 0)
(0 0.191139 0)
(0 0.191722 0)
(0 0.192323 0)
(0 0.192943 0)
(0 0.193583 0)
(0 0.194243 0)
(0 0.194924 0)
(0 0.195625 0)
(0 0.196349 0)
(0 0.197095 0)
(0 0.197864 0)
(0 0.198656 0)
(0 0.199473 0)
(0 0.200314 0)
(0 0.201181 0)
(0 0.202074 0)
(0 0.202995 0)
(0 0.203943 0)
(0 0.20492 0)
(0 0.205926 0)
(0 0.206963 0)
(0 0.20803 0)
(0 0.20913 0)
(0 0.210263 0)
(0 0.211431 0)
(0 0.212633 0)
(0 0.213872 0)
(0 0.215148 0)
(0 0.216463 0)
(0 0.217818 0)
(0 0.219214 0)
(0 0.220653 0)
(0 0.222135 0)
(0 0.223664 0)
(0 0.225239 0)
(0 0.226862 0)
(0 0.228536 0)
(0 0.230262 0)
(0 0.232042 0)
(0 0.233878 0)
(0 0.235772 0)
(0 0.237725 0)
(0 0.239742 0)
(0 0.241821 0)
(0 0.243972 0)
(0 0.246182 0)
(0 0.248484 0)
(0.00358203 0.250826 0)
(0.00716333 0.250749 0)
(0.0107432 0.250622 0)
(0.0143208 0.250443 0)
(0.0178956 0.250213 0)
(0.0214666 0.249932 0)
(0.0250333 0.249599 0)
(0.0285949 0.249217 0)
(0.0321507 0.248783 0)
(0.0356999 0.248298 0)
(0.0392419 0.247763 0)
(0.0427758 0.247178 0)
(0.046301 0.246542 0)
(0.0498168 0.245855 0)
(0.0533224 0.245119 0)
(0.0568171 0.244333 0)
(0.0603002 0.243496 0)
(0.0637711 0.24261 0)
(0.067229 0.241675 0)
(0.0706731 0.24069 0)
(0.0741028 0.239657 0)
(0.0775174 0.238574 0)
(0.0809163 0.237443 0)
(0.0842986 0.236263 0)
(0.0876637 0.235035 0)
(0.0910109 0.23376 0)
(0.0943396 0.232436 0)
(0.0976491 0.231065 0)
(0.100939 0.229647 0)
(0.104208 0.228183 0)
(0.107455 0.226671 0)
(0.110681 0.225114 0)
(0.113884 0.223511 0)
(0.117064 0.221862 0)
(0.12022 0.220167 0)
(0.123352 0.218428 0)
(0.126459 0.216644 0)
(0.129539 0.214817 0)
(0.132593 0.212945 0)
(0.135621 0.21103 0)
(0.13862 0.209072 0)
(0.141592 0.207071 0)
(0.144534 0.205028 0)
(0.147447 0.202943 0)
(0.15033 0.200817 0)
(0.153182 0.19865 0)
(0.156003 0.196442 0)
(0.158792 0.194195 0)
(0.161549 0.191907 0)
(0.164273 0.189581 0)
(0.166963 0.187216 0)
(0.16962 0.184813 0)
(0.172241 0.182372 0)
(0.174828 0.179894 0)
(0.177379 0.177379 0)
(0.179894 0.174828 0)
(0.182372 0.172241 0)
(0.184813 0.16962 0)
(0.187216 0.166963 0)
(0.189581 0.164273 0)
(0.191907 0.161549 0)
(0.194195 0.158792 0)
(0.196442 0.156003 0)
(0.19865 0.153182 0)
(0.200817 0.15033 0)
(0.202943 0.147447 0)
(0.205028 0.144534 0)
(0.207071 0.141592 0)
(0.209072 0.13862 0)
(0.21103 0.135621 0)
(0.212945 0.132593 0)
(0.214817 0.129539 0)
(0.216644 0.126459 0)
(0.218428 0.123352 0)
(0.220167 0.12022 0)
(0.221862 0.117064 0)
(0.223511 0.113884 0)
(0.225114 0.110681 0)
(0.226671 0.107455 0)
(0.228183 0.104208 0)
(0.229647 0.100939 0)
(0.231065 0.0976491 0)
(0.232436 0.0943396 0)
(0.23376 0.0910109 0)
(0.235035 0.0876637 0)
(0.236263 0.0842986 0)
(0.237443 0.0809163 0)
(0.238574 0.0775174 0)
(0.239657 0.0741028 0)
(0.24069 0.0706731 0)
(0.241675 0.067229 0)
(0.24261 0.0637711 0)
(0.243496 0.0603002 0)
(0.244333 0.0568171 0)
(0.245119 0.0533224 0)
(0.245855 0.0498168 0)
(0.246542 0.046301 0)
(0.247178 0.0427758 0)
(0.247763 0.0392419 0)
(0.248298 0.0356999 0)
(0.248783 0.0321507 0)
(0.249217 0.0285949 0)
(0.249599 0.0250333 0)
(0.249932 0.0214666 0)
(0.250213 0.0178956 0)
(0.250443 0.0143208 0)
(0.250622 0.0107432 0)
(0.250749 0.00716333 0)
(0.250826 0.00358203 0)
(0.248484 0 0)
(0.246182 0 0)
(0.243972 0 0)
(0.241821 0 0)
(0.239742 0 0)
(0.237725 0 0)
(0.235772 0 0)
(0.233878 0 0)
(0.232042 0 0)
(0.230262 0 0)
(0.228536 0 0)
(0.226862 0 0)
(0.225239 0 0)
(0.223664 0 0)
(0.222135 0 0)
(0.220653 0 0)
(0.219214 0 0)
(0.217818 0 0)
(0.216463 0 0)
(0.215148 0 0)
(0.213872 0 0)
(0.212633 0 0)
(0.211431 0 0)
(0.210263 0 0)
(0.20913 0 0)
(0.20803 0 0)
(0.206963 0 0)
(0.205926 0 0)
(0.20492 0 0)
(0.203943 0 0)
(0.202995 0 0)
(0.202074 0 0)
(0.201181 0 0)
(0.200314 0 0)
(0.199473 0 0)
(0.198656 0 0)
(0.197864 0 0)
(0.197095 0 0)
(0.196349 0 0)
(0.195625 0 0)
(0.194924 0 0)
(0.194243 0 0)
(0.193583 0 0)
(0.192943 0 0)
(0.192323 0 0)
(0.191722 0 0)
(0.191139 0 0)
(0.190575 0 0)
(0.190029 0 0)
(0.189499 0 0)
(0.188987 0 0)
(0.188491 0 0)
(0.188012 0 0)
(0.187548 0 0)
(0.187099 0 0)
(0.186665 0 0)
(0.186247 0 0)
(0.185842 0 0)
(0.185451 0 0)
(0.185075 0 0)
(0.184711 0 0)
(0.184361 0 0)
(0.184023 0 0)
(0.183698 0 0)
(0.183385 0 0)
(0.183084 0 0)
(0.182795 0 0)
(0.182518 0 0)
(0.182251 0 0)
(0.181996 0 0)
(0.181751 0 0)
(0.181517 0 0)
(0.181294 0 0)
(0.18108 0 0)
(0.180877 0 0)
(0.180683 0 0)
(0.180498 0 0)
(0.180323 0 0)
(0.180157 0 0)
(0.180001 0 0)
(0.179853 0 0)
(0.179713 0 0)
(0.179582 0 0)
(0.179459 0 0)
(0.179345 0 0)
(0.179238 0 0)
(0.17914 0 0)
(0.179049 0 0)
(0.178965 0 0)
(0.178889 0 0)
(0.178821 0 0)
(0.178759 0 0)
(0.178705 0 0)
(0.178657 0 0)
(0.178616 0 0)
(0.178582 0 0)
(0.178554 0 0)
(0.178533 0 0)
(0.178518 0 0)
(0.178509 0 0)
(0.178507 0 0)
(0.17851 0 0)
(0.178519 0 0)
(0.178534 0 0)
(0.178555 0 0)
(0.178581 0 0)
(0.178613 0 0)
(0.17865 0 0)
(0.178692 0 0)
(0.17874 0 0)
(0.178793 0 0)
(0.178851 0 0)
(0.178914 0 0)
(0.178982 0 0)
(0.179054 0 0)
(0.179132 0 0)
(0.179196 0.00255909 0)
(0.179141 0.00511766 0)
(0.17905 0.00767518 0)
(0.178922 0.0102311 0)
(0.178758 0.012785 0)
(0.178557 0.0153363 0)
(0.17832 0.0178844 0)
(0.178046 0.0204289 0)
(0.177736 0.0229692 0)
(0.17739 0.0255049 0)
(0.177008 0.0280353 0)
(0.17659 0.03056 0)
(0.176135 0.0330785 0)
(0.175645 0.0355903 0)
(0.175119 0.0380948 0)
(0.174557 0.0405915 0)
(0.17396 0.0430799 0)
(0.173327 0.0455596 0)
(0.172658 0.04803 0)
(0.171955 0.0504905 0)
(0.171216 0.0529408 0)
(0.170443 0.0553803 0)
(0.169635 0.0578085 0)
(0.168792 0.0602249 0)
(0.167915 0.062629 0)
(0.167003 0.0650204 0)
(0.166058 0.0673985 0)
(0.165079 0.0697628 0)
(0.164066 0.0721129 0)
(0.163019 0.0744484 0)
(0.161939 0.0767686 0)
(0.160827 0.0790732 0)
(0.159681 0.0813617 0)
(0.158503 0.0836335 0)
(0.157293 0.0858883 0)
(0.15605 0.0881256 0)
(0.154776 0.090345 0)
(0.15347 0.0925459 0)
(0.152133 0.0947279 0)
(0.150765 0.0968906 0)
(0.149366 0.0990336 0)
(0.147936 0.101156 0)
(0.146477 0.103259 0)
(0.144988 0.10534 0)
(0.143469 0.107399 0)
(0.14192 0.109437 0)
(0.140343 0.111452 0)
(0.138737 0.113445 0)
(0.137103 0.115415 0)
(0.135441 0.11736 0)
(0.133752 0.119283 0)
(0.132035 0.12118 0)
(0.130291 0.123053 0)
(0.12852 0.124901 0)
(0.126724 0.126724 0)
(0.124901 0.12852 0)
(0.123053 0.130291 0)
(0.12118 0.132035 0)
(0.119283 0.133752 0)
(0.11736 0.135441 0)
(0.115414 0.137103 0)
(0.113445 0.138737 0)
(0.111452 0.140343 0)
(0.109437 0.14192 0)
(0.107399 0.143469 0)
(0.10534 0.144988 0)
(0.103259 0.146477 0)
(0.101156 0.147936 0)
(0.0990336 0.149366 0)
(0.0968906 0.150765 0)
(0.0947279 0.152133 0)
(0.0925459 0.15347 0)
(0.090345 0.154776 0)
(0.0881256 0.15605 0)
(0.0858883 0.157293 0)
(0.0836335 0.158503 0)
(0.0813617 0.159681 0)
(0.0790732 0.160827 0)
(0.0767686 0.161939 0)
(0.0744484 0.163019 0)
(0.0721129 0.164066 0)
(0.0697628 0.165079 0)
(0.0673985 0.166058 0)
(0.0650204 0.167003 0)
(0.062629 0.167915 0)
(0.0602249 0.168792 0)
(0.0578085 0.169635 0)
(0.0553803 0.170443 0)
(0.0529408 0.171216 0)
(0.0504905 0.171955 0)
(0.04803 0.172658 0)
(0.0455596 0.173327 0)
(0.0430799 0.17396 0)
(0.0405915 0.174557 0)
(0.0380948 0.175119 0)
(0.0355903 0.175645 0)
(0.0330785 0.176135 0)
(0.03056 0.17659 0)
(0.0280353 0.177008 0)
(0.0255049 0.17739 0)
(0.0229692 0.177736 0)
(0.0204289 0.178046 0)
(0.0178844 0.17832 0)
(0.0153363 0.178557 0)
(0.012785 0.178758 0)
(0.0102311 0.178922 0)
(0.00767518 0.17905 0)
(0.00511766 0.179141 0)
(0.00255909 0.179196 0)
(0 0.179132 0)
(0 0.179054 0)
(0 0.178982 0)
(0 0.178914 0)
(0 0.178851 0)
(0 0.178793 0)
(0 0.17874 0)
(0 0.178692 0)
(0 0.17865 0)
(0 0.178613 0)
(0 0.178581 0)
(0 0.178555 0)
(0 0.178534 0)
(0 0.178519 0)
(0 0.17851 0)
(0 0.178507 0)
(0 0.178509 0)
(0 0.178518 0)
(0 0.178533 0)
(0 0.178554 0)
(0 0.178582 0)
(0 0.178616 0)
(0 0.178657 0)
(0 0.178705 0)
(0 0.178759 0)
(0 0.178821 0)
(0 0.178889 0)
(0 0.178965 0)
(0 0.179049 0)
(0 0.17914 0)
(0 0.179238 0)
(0 0.179345 0)
(0 0.179459 0)
(0 0.179582 0)
(0 0.179713 0)
(0 0.179853 0)
(0 0.180001 0)
(0 0.180157 0)
(0 0.180323 0)
(0 0.180498 0)
(0 0.180683 0)
(0 0.180877 0)
(0 0.18108 0)
(0 0.181294 0)
(0 0.181517 0)
(0 0.181751 0)
(0 0.181996 0)
(0 0.182251 0)
(0 0.182518 0)
(0 0.182795 0)
(0 0.183084 0)
(0 0.183385 0)
(0 0.183698 0)
(0 0.184023 0)
(0 0.184361 0)
(0 0.184711 0)
(0 0.185075 0)
(0 0.185451 0)
(0 0.185842 0)
(0 0.186247 0)
(0 0.186665 0)
(0 0.187099 0)
(0 0.187548 0)
(0 0.188012 0)
(0 0.188491 0)
(0 0.188987 0)
(0 0.189499 0)
(0 0.190029 0)
(0 0.190575 0)
(0 0.191139 0)
(0 0.191722 0)
(0 0.192323 0)
(0 0.192943 0)
(0 0.193583 0)
(0 0.194243 0)
(0 0.194924 0)
(0 0.195625 0)
(0 0.196349 0)
(0 0.197095 0)
(0 0.197864 0)
(0 0.198656 0)
(0 0.199473 0)
(0 0.200314 0)
(0 0.201181 0)
(0 0.202074 0)
(0 0.202995 0)
(0 0.203943 0)
(0 0.20492 0)
(0 0.205926 0)
(0 0.206963 0)
(0 0.20803 0)
(0 0.20913 0)
(0 0.210263 0)
(0 0.211431 0)
(0 0.212633 0)
(0 0.213872 0)
(0 0.215148 0)
(0 0.216463 0)
(0 0.217818 0)
(0 0.219214 0)
(0 0.220653 0)
(0 0.222135 0)
(0 0.223664 0)
(0 0.225239 0)
(0 0.226862 0)
(0 0.228536 0)
(0 0.230262 0)
(0 0.232042 0)
(0 0.233878 0)
(0 0.235772 0)
(0 0.237725 0)
(0 0.239742 0)
(0 0.241821 0)
(0 0.243972 0)
(0 0.246182 0)
(0 0.248484 0)
(0.00358203 0.250826 0)
(0.00716333 0.250749 0)
(0.0107432 0.250622 0)
(0.0143208 0.250443 0)
(0.0178956 0.250213 0)
(0.0214666 0.249932 0)
(0.0250333 0.249599 0)
(0.0285949 0.249217 0)
(0.0321507 0.248783 0)
(0.0356999 0.248298 0)
(0.0392419 0.247763 0)
(0.0427758 0.247178 0)
(0.046301 0.246542 0)
(0.0498168 0.245855 0)
(0.0533224 0.245119 0)
(0.0568171 0.244333 0)
(0.0603002 0.243496 0)
(0.0637711 0.24261 0)
(0.067229 0.241675 0)
(0.0706731 0.24069 0)
(0.0741028 0.239657 0)
(0.0775174 0.238574 0)
(0.0809163 0.237443 0)
(0.0842986 0.236263 0)
(0.0876637 0.235035 0)
(0.0910109 0.23376 0)
(0.0943396 0.232436 0)
(0.0976491 0.231065 0)
(0.100939 0.229647 0)
(0.104208 0.228183 0)
(0.107455 0.226671 0)
(0.110681 0.225114 0)
(0.113884 0.223511 0)
(0.117064 0.221862 0)
(0.12022 0.220167 0)
(0.123352 0.218428 0)
(0.126459 0.216644 0)
(0.129539 0.214817 0)
(0.132593 0.212945 0)
(0.135621 0.21103 0)
(0.13862 0.209072 0)
(0.141592 0.207071 0)
(0.144534 0.205028 0)
(0.147447 0.202943 0)
(0.15033 0.200817 0)
(0.153182 0.19865 0)
(0.156003 0.196442 0)
(0.158792 0.194195 0)
(0.161549 0.191907 0)
(0.164273 0.189581 0)
(0.166963 0.187216 0)
(0.16962 0.184813 0)
(0.172241 0.182372 0)
(0.174828 0.179894 0)
(0.177379 0.177379 0)
(0.179894 0.174828 0)
(0.182372 0.172241 0)
(0.184813 0.16962 0)
(0.187216 0.166963 0)
(0.189581 0.164273 0)
(0.191907 0.161549 0)
(0.194195 0.158792 0)
(0.196442 0.156003 0)
(0.19865 0.153182 0)
(0.200817 0.15033 0)
(0.202943 0.147447 0)
(0.205028 0.144534 0)
(0.207071 0.141592 0)
(0.209072 0.13862 0)
(0.21103 0.135621 0)
(0.212945 0.132593 0)
(0.214817 0.129539 0)
(0.216644 0.126459 0)
(0.218428 0.123352 0)
(0.220167 0.12022 0)
(0.221862 0.117064 0)
(0.223511 0.113884 0)
(0.225114 0.110681 0)
(0.226671 0.107455 0)
(0.228183 0.104208 0)
(0.229647 0.100939 0)
(0.231065 0.0976491 0)
(0.232436 0.0943396 0)
(0.23376 0.0910109 0)
(0.235035 0.0876637 0)
(0.236263 0.0842986 0)
(0.237443 0.0809163 0)
(0.238574 0.0775174 0)
(0.239657 0.0741028 0)
(0.24069 0.0706731 0)
(0.241675 0.067229 0)
(0.24261 0.0637711 0)
(0.243496 0.0603002 0)
(0.244333 0.0568171 0)
(0.245119 0.0533224 0)
(0.245855 0.0498168 0)
(0.246542 0.046301 0)
(0.247178 0.0427758 0)
(0.247763 0.0392419 0)
(0.248298 0.0356999 0)
(0.248783 0.0321507 0)
(0.249217 0.0285949 0)
(0.249599 0.0250333 0)
(0.249932 0.0214666 0)
(0.250213 0.0178956 0)
(0.250443 0.0143208 0)
(0.250622 0.0107432 0)
(0.250749 0.00716333 0)
(0.250826 0.00358203 0)
(0.248459 0.00354823 0)
(0.248383 0.00709574 0)
(0.248257 0.0106418 0)
(0.248079 0.0141857 0)
(0.247851 0.0177267 0)
(0.247573 0.0212641 0)
(0.247244 0.0247971 0)
(0.246865 0.0283251 0)
(0.246435 0.0318473 0)
(0.245955 0.035363 0)
(0.245425 0.0388715 0)
(0.244845 0.0423721 0)
(0.244215 0.0458641 0)
(0.243535 0.0493467 0)
(0.242806 0.0528192 0)
(0.242027 0.0562809 0)
(0.241199 0.0597312 0)
(0.240321 0.0631693 0)
(0.239394 0.0665945 0)
(0.238419 0.0700062 0)
(0.237395 0.0734035 0)
(0.236323 0.0767859 0)
(0.235202 0.0801527 0)
(0.234034 0.0835031 0)
(0.232817 0.0868364 0)
(0.231554 0.0901521 0)
(0.230243 0.0934494 0)
(0.228885 0.0967276 0)
(0.22748 0.0999861 0)
(0.226029 0.103224 0)
(0.224532 0.106441 0)
(0.22299 0.109637 0)
(0.221401 0.11281 0)
(0.219768 0.11596 0)
(0.21809 0.119086 0)
(0.216367 0.122188 0)
(0.2146 0.125265 0)
(0.212789 0.128317 0)
(0.210935 0.131342 0)
(0.209038 0.134341 0)
(0.207099 0.137312 0)
(0.205117 0.140255 0)
(0.203093 0.14317 0)
(0.201028 0.146056 0)
(0.198922 0.148911 0)
(0.196775 0.151737 0)
(0.194589 0.154531 0)
(0.192362 0.157294 0)
(0.190096 0.160025 0)
(0.187792 0.162723 0)
(0.185449 0.165388 0)
(0.183069 0.168019 0)
(0.180651 0.170616 0)
(0.178196 0.173178 0)
(0.175705 0.175705 0)
(0.173178 0.178196 0)
(0.170616 0.180651 0)
(0.168019 0.183069 0)
(0.165388 0.185449 0)
(0.162723 0.187792 0)
(0.160025 0.190096 0)
(0.157294 0.192362 0)
(0.154531 0.194589 0)
(0.151737 0.196775 0)
(0.148911 0.198922 0)
(0.146056 0.201028 0)
(0.14317 0.203093 0)
(0.140255 0.205117 0)
(0.137312 0.207099 0)
(0.134341 0.209038 0)
(0.131342 0.210935 0)
(0.128317 0.212789 0)
(0.125265 0.2146 0)
(0.122188 0.216367 0)
(0.119086 0.21809 0)
(0.11596 0.219768 0)
(0.11281 0.221401 0)
(0.109637 0.22299 0)
(0.106441 0.224532 0)
(0.103224 0.226029 0)
(0.0999861 0.22748 0)
(0.0967276 0.228885 0)
(0.0934494 0.230243 0)
(0.0901521 0.231554 0)
(0.0868364 0.232817 0)
(0.0835031 0.234034 0)
(0.0801527 0.235202 0)
(0.0767859 0.236323 0)
(0.0734035 0.237395 0)
(0.0700062 0.238419 0)
(0.0665945 0.239394 0)
(0.0631693 0.240321 0)
(0.0597312 0.241199 0)
(0.0562809 0.242027 0)
(0.0528192 0.242806 0)
(0.0493467 0.243535 0)
(0.0458641 0.244215 0)
(0.0423721 0.244845 0)
(0.0388715 0.245425 0)
(0.035363 0.245955 0)
(0.0318473 0.246435 0)
(0.0283251 0.246865 0)
(0.0247971 0.247244 0)
(0.0212641 0.247573 0)
(0.0177267 0.247851 0)
(0.0141857 0.248079 0)
(0.0106418 0.248257 0)
(0.00709574 0.248383 0)
(0.00354823 0.248459 0)
(0.246157 0.00351535 0)
(0.246082 0.00702998 0)
(0.245956 0.0105432 0)
(0.24578 0.0140542 0)
(0.245555 0.0175624 0)
(0.245279 0.021067 0)
(0.244953 0.0245673 0)
(0.244577 0.0280626 0)
(0.244152 0.0315522 0)
(0.243676 0.0350353 0)
(0.243151 0.0385113 0)
(0.242576 0.0419795 0)
(0.241952 0.0454391 0)
(0.241279 0.0488894 0)
(0.240556 0.0523297 0)
(0.239784 0.0557594 0)
(0.238964 0.0591777 0)
(0.238094 0.062584 0)
(0.237176 0.0659774 0)
(0.23621 0.0693575 0)
(0.235195 0.0727234 0)
(0.234133 0.0760744 0)
(0.233023 0.07941 0)
(0.231865 0.0827293 0)
(0.23066 0.0860318 0)
(0.229408 0.0893167 0)
(0.228109 0.0925834 0)
(0.226764 0.0958313 0)
(0.225372 0.0990596 0)
(0.223935 0.102268 0)
(0.222452 0.105455 0)
(0.220923 0.108621 0)
(0.21935 0.111764 0)
(0.217731 0.114885 0)
(0.216069 0.117982 0)
(0.214362 0.121056 0)
(0.212612 0.124104 0)
(0.210818 0.127128 0)
(0.208981 0.130125 0)
(0.207101 0.133096 0)
(0.20518 0.13604 0)
(0.203216 0.138956 0)
(0.201211 0.141843 0)
(0.199165 0.144702 0)
(0.197079 0.147531 0)
(0.194952 0.15033 0)
(0.192786 0.153099 0)
(0.19058 0.155836 0)
(0.188335 0.158542 0)
(0.186052 0.161215 0)
(0.183731 0.163855 0)
(0.181372 0.166462 0)
(0.178977 0.169035 0)
(0.176545 0.171573 0)
(0.174077 0.174077 0)
(0.171573 0.176545 0)
(0.169035 0.178977 0)
(0.166462 0.181372 0)
(0.163855 0.183731 0)
(0.161215 0.186052 0)
(0.158542 0.188335 0)
(0.155836 0.19058 0)
(0.153099 0.192786 0)
(0.15033 0.194952 0)
(0.147531 0.197079 0)
(0.144702 0.199165 0)
(0.141843 0.201211 0)
(0.138956 0.203216 0)
(0.13604 0.20518 0)
(0.133096 0.207101 0)
(0.130125 0.208981 0)
(0.127128 0.210818 0)
(0.124104 0.212612 0)
(0.121056 0.214362 0)
(0.117982 0.216069 0)
(0.114885 0.217731 0)
(0.111764 0.21935 0)
(0.108621 0.220923 0)
(0.105455 0.222452 0)
(0.102268 0.223935 0)
(0.0990596 0.225372 0)
(0.0958313 0.226764 0)
(0.0925834 0.228109 0)
(0.0893167 0.229408 0)
(0.0860318 0.23066 0)
(0.0827293 0.231865 0)
(0.07941 0.233023 0)
(0.0760744 0.234133 0)
(0.0727234 0.235195 0)
(0.0693575 0.23621 0)
(0.0659774 0.237176 0)
(0.062584 0.238094 0)
(0.0591777 0.238964 0)
(0.0557594 0.239784 0)
(0.0523297 0.240556 0)
(0.0488894 0.241279 0)
(0.0454391 0.241952 0)
(0.0419795 0.242576 0)
(0.0385113 0.243151 0)
(0.0350353 0.243676 0)
(0.0315522 0.244152 0)
(0.0280626 0.244577 0)
(0.0245673 0.244953 0)
(0.021067 0.245279 0)
(0.0175624 0.245555 0)
(0.0140542 0.24578 0)
(0.0105432 0.245956 0)
(0.00702998 0.246082 0)
(0.00351535 0.246157 0)
(0.243947 0.00348379 0)
(0.243872 0.00696687 0)
(0.243748 0.0104485 0)
(0.243574 0.0139281 0)
(0.24335 0.0174048 0)
(0.243077 0.0208779 0)
(0.242754 0.0243468 0)
(0.242382 0.0278107 0)
(0.24196 0.0312689 0)
(0.241489 0.0347208 0)
(0.240968 0.0381656 0)
(0.240399 0.0416026 0)
(0.23978 0.0450311 0)
(0.239113 0.0484505 0)
(0.238396 0.0518599 0)
(0.237631 0.0552588 0)
(0.236818 0.0586465 0)
(0.235957 0.0620221 0)
(0.235047 0.0653851 0)
(0.234089 0.0687348 0)
(0.233084 0.0720705 0)
(0.232031 0.0753914 0)
(0.230931 0.078697 0)
(0.229784 0.0819866 0)
(0.228589 0.0852594 0)
(0.227349 0.0885149 0)
(0.226061 0.0917523 0)
(0.224728 0.0949709 0)
(0.223349 0.0981703 0)
(0.221925 0.10135 0)
(0.220455 0.104508 0)
(0.21894 0.107646 0)
(0.217381 0.110761 0)
(0.215777 0.113854 0)
(0.214129 0.116923 0)
(0.212438 0.119969 0)
(0.210703 0.12299 0)
(0.208925 0.125986 0)
(0.207105 0.128957 0)
(0.205242 0.131901 0)
(0.203338 0.134818 0)
(0.201392 0.137708 0)
(0.199405 0.14057 0)
(0.197377 0.143403 0)
(0.19531 0.146207 0)
(0.193202 0.148981 0)
(0.191055 0.151725 0)
(0.188869 0.154437 0)
(0.186644 0.157118 0)
(0.184382 0.159768 0)
(0.182081 0.162384 0)
(0.179744 0.164968 0)
(0.17737 0.167517 0)
(0.17496 0.170033 0)
(0.172514 0.172514 0)
(0.170033 0.17496 0)
(0.167517 0.17737 0)
(0.164968 0.179744 0)
(0.162384 0.182081 0)
(0.159768 0.184382 0)
(0.157118 0.186644 0)
(0.154437 0.188869 0)
(0.151725 0.191055 0)
(0.148981 0.193202 0)
(0.146207 0.19531 0)
(0.143403 0.197377 0)
(0.14057 0.199405 0)
(0.137708 0.201392 0)
(0.134818 0.203338 0)
(0.131901 0.205242 0)
(0.128957 0.207105 0)
(0.125986 0.208925 0)
(0.12299 0.210703 0)
(0.119969 0.212438 0)
(0.116923 0.214129 0)
(0.113854 0.215777 0)
(0.110761 0.217381 0)
(0.107646 0.21894 0)
(0.104508 0.220455 0)
(0.10135 0.221925 0)
(0.0981703 0.223349 0)
(0.0949709 0.224728 0)
(0.0917523 0.226061 0)
(0.0885149 0.227349 0)
(0.0852594 0.228589 0)
(0.0819866 0.229784 0)
(0.078697 0.230931 0)
(0.0753914 0.232031 0)
(0.0720705 0.233084 0)
(0.0687348 0.234089 0)
(0.0653851 0.235047 0)
(0.0620221 0.235957 0)
(0.0586465 0.236818 0)
(0.0552588 0.237631 0)
(0.0518599 0.238396 0)
(0.0484505 0.239113 0)
(0.0450311 0.23978 0)
(0.0416026 0.240399 0)
(0.0381656 0.240968 0)
(0.0347208 0.241489 0)
(0.0312689 0.24196 0)
(0.0278107 0.242382 0)
(0.0243468 0.242754 0)
(0.0208779 0.243077 0)
(0.0174048 0.24335 0)
(0.0139281 0.243574 0)
(0.0104485 0.243748 0)
(0.00696687 0.243872 0)
(0.00348379 0.243947 0)
(0.241796 0.00345307 0)
(0.241722 0.00690545 0)
(0.241599 0.0103564 0)
(0.241426 0.0138053 0)
(0.241205 0.0172513 0)
(0.240934 0.0206938 0)
(0.240614 0.0241321 0)
(0.240245 0.0275655 0)
(0.239826 0.0309932 0)
(0.239359 0.0344147 0)
(0.238844 0.0378291 0)
(0.238279 0.0412358 0)
(0.237666 0.0446341 0)
(0.237004 0.0480233 0)
(0.236294 0.0514027 0)
(0.235536 0.0547716 0)
(0.23473 0.0581294 0)
(0.233876 0.0614753 0)
(0.232975 0.0648086 0)
(0.232025 0.0681288 0)
(0.231029 0.071435 0)
(0.229985 0.0747267 0)
(0.228895 0.0780032 0)
(0.227758 0.0812637 0)
(0.226574 0.0845077 0)
(0.225344 0.0877344 0)
(0.224068 0.0909433 0)
(0.222747 0.0941336 0)
(0.22138 0.0973047 0)
(0.219968 0.100456 0)
(0.218511 0.103587 0)
(0.21701 0.106696 0)
(0.215464 0.109784 0)
(0.213874 0.11285 0)
(0.212241 0.115892 0)
(0.210564 0.118911 0)
(0.208845 0.121906 0)
(0.207083 0.124876 0)
(0.205279 0.12782 0)
(0.203433 0.130738 0)
(0.201545 0.13363 0)
(0.199616 0.136494 0)
(0.197647 0.139331 0)
(0.195637 0.142139 0)
(0.193587 0.144918 0)
(0.191498 0.147667 0)
(0.18937 0.150387 0)
(0.187204 0.153076 0)
(0.184999 0.155733 0)
(0.182756 0.158359 0)
(0.180476 0.160952 0)
(0.178159 0.163513 0)
(0.175806 0.16604 0)
(0.173417 0.168534 0)
(0.170993 0.170993 0)
(0.168534 0.173417 0)
(0.16604 0.175806 0)
(0.163513 0.178159 0)
(0.160952 0.180476 0)
(0.158359 0.182756 0)
(0.155733 0.184999 0)
(0.153076 0.187204 0)
(0.150387 0.18937 0)
(0.147667 0.191498 0)
(0.144918 0.193587 0)
(0.142139 0.195637 0)
(0.139331 0.197647 0)
(0.136494 0.199616 0)
(0.13363 0.201545 0)
(0.130738 0.203433 0)
(0.12782 0.205279 0)
(0.124876 0.207083 0)
(0.121906 0.208845 0)
(0.118911 0.210564 0)
(0.115892 0.212241 0)
(0.11285 0.213874 0)
(0.109784 0.215464 0)
(0.106696 0.21701 0)
(0.103587 0.218511 0)
(0.100456 0.219968 0)
(0.0973047 0.22138 0)
(0.0941336 0.222747 0)
(0.0909433 0.224068 0)
(0.0877344 0.225344 0)
(0.0845077 0.226574 0)
(0.0812637 0.227758 0)
(0.0780032 0.228895 0)
(0.0747267 0.229985 0)
(0.071435 0.231029 0)
(0.0681288 0.232025 0)
(0.0648086 0.232975 0)
(0.0614753 0.233876 0)
(0.0581294 0.23473 0)
(0.0547716 0.235536 0)
(0.0514027 0.236294 0)
(0.0480233 0.237004 0)
(0.0446341 0.237666 0)
(0.0412358 0.238279 0)
(0.0378291 0.238844 0)
(0.0344147 0.239359 0)
(0.0309932 0.239826 0)
(0.0275655 0.240245 0)
(0.0241321 0.240614 0)
(0.0206938 0.240934 0)
(0.0172513 0.241205 0)
(0.0138053 0.241426 0)
(0.0103564 0.241599 0)
(0.00690545 0.241722 0)
(0.00345307 0.241796 0)
(0.239718 0.00342339 0)
(0.239644 0.00684609 0)
(0.239522 0.0102674 0)
(0.239351 0.0136866 0)
(0.239131 0.017103 0)
(0.238863 0.0205159 0)
(0.238545 0.0239247 0)
(0.238179 0.0273286 0)
(0.237765 0.0307268 0)
(0.237302 0.0341189 0)
(0.236791 0.0375039 0)
(0.236231 0.0408814 0)
(0.235623 0.0442505 0)
(0.234967 0.0476105 0)
(0.234263 0.0509609 0)
(0.233512 0.0543008 0)
(0.232713 0.0576297 0)
(0.231866 0.0609469 0)
(0.230972 0.0642516 0)
(0.230031 0.0675432 0)
(0.229043 0.070821 0)
(0.228008 0.0740844 0)
(0.226927 0.0773327 0)
(0.2258 0.0805652 0)
(0.224626 0.0837813 0)
(0.223407 0.0869803 0)
(0.222142 0.0901616 0)
(0.220832 0.0933245 0)
(0.219477 0.0964683 0)
(0.218077 0.0995925 0)
(0.216633 0.102696 0)
(0.215144 0.105779 0)
(0.213612 0.108841 0)
(0.212036 0.11188 0)
(0.210417 0.114896 0)
(0.208755 0.117889 0)
(0.20705 0.120858 0)
(0.205303 0.123802 0)
(0.203514 0.126721 0)
(0.201684 0.129614 0)
(0.199813 0.132481 0)
(0.1979 0.135321 0)
(0.195948 0.138133 0)
(0.193956 0.140917 0)
(0.191924 0.143672 0)
(0.189852 0.146398 0)
(0.187743 0.149094 0)
(0.185594 0.15176 0)
(0.183408 0.154395 0)
(0.181185 0.156998 0)
(0.178925 0.159569 0)
(0.176628 0.162108 0)
(0.174295 0.164613 0)
(0.171927 0.167085 0)
(0.169523 0.169523 0)
(0.167085 0.171927 0)
(0.164613 0.174295 0)
(0.162108 0.176628 0)
(0.159569 0.178925 0)
(0.156998 0.181185 0)
(0.154395 0.183408 0)
(0.15176 0.185594 0)
(0.149094 0.187743 0)
(0.146398 0.189852 0)
(0.143672 0.191924 0)
(0.140917 0.193956 0)
(0.138133 0.195948 0)
(0.135321 0.1979 0)
(0.132481 0.199813 0)
(0.129614 0.201684 0)
(0.126721 0.203514 0)
(0.123802 0.205303 0)
(0.120858 0.20705 0)
(0.117889 0.208755 0)
(0.114896 0.210417 0)
(0.11188 0.212036 0)
(0.108841 0.213612 0)
(0.105779 0.215144 0)
(0.102696 0.216633 0)
(0.0995925 0.218077 0)
(0.0964683 0.219477 0)
(0.0933245 0.220832 0)
(0.0901616 0.222142 0)
(0.0869803 0.223407 0)
(0.0837813 0.224626 0)
(0.0805652 0.2258 0)
(0.0773327 0.226927 0)
(0.0740844 0.228008 0)
(0.070821 0.229043 0)
(0.0675432 0.230031 0)
(0.0642516 0.230972 0)
(0.0609469 0.231866 0)
(0.0576297 0.232713 0)
(0.0543008 0.233512 0)
(0.0509609 0.234263 0)
(0.0476105 0.234967 0)
(0.0442505 0.235623 0)
(0.0408814 0.236231 0)
(0.0375039 0.236791 0)
(0.0341189 0.237302 0)
(0.0307268 0.237765 0)
(0.0273286 0.238179 0)
(0.0239247 0.238545 0)
(0.0205159 0.238863 0)
(0.017103 0.239131 0)
(0.0136866 0.239351 0)
(0.0102674 0.239522 0)
(0.00684609 0.239644 0)
(0.00342339 0.239718 0)
(0.237701 0.00339459 0)
(0.237628 0.0067885 0)
(0.237507 0.010181 0)