/*--------------------------------*- C++ -*----------------------------------*\
| =========                 |                                                 |
| \\      /  F ield         | OpenFOAM: The Open Source CFD Toolbox           |
|  \\    /   O peration     | Version:  2312                                  |
|   \\  /    A nd           | Website:  www.openfoam.com                      |
|    \\/     M anipulation  |                                                 |
\*---------------------------------------------------------------------------*/
FoamFile
{
    version     2.0;
    format      ascii;
    arch        "LSB;label=32;scalar=64";
    class       volSymmTensorField;
    location    "10";
    object      sigma:Transformed;
}
// * * * * * * * * * * * * * * * * * * * * * * * * * * * * * * * * * * * * * //

dimensions      [1 -1 -2 0 0 0 0];

internalField   nonuniform List<symmTensor> 
12870
(
(-9.7921e+06 -0.0123827 -1.84291e-12 1.35254e+07 -3.77034e-10 -481661)
(-9.7921e+06 0.0221029 -2.61608e-10 1.35254e+07 1.88517e-10 -481661)
(-9.7921e+06 -0.0159086 3.95637e-10 1.35254e+07 3.77034e-10 -481661)
(-9.7921e+06 0.0263895 9.21457e-13 1.35254e+07 -1.88517e-10 -481661)
(-9.7921e+06 -0.0527005 -1.32186e-10 1.35254e+07 1.88517e-10 -481661)
(-9.7921e+06 0.026748 3.9748e-10 1.35254e+07 -1.03903e-18 -481661)
(-9.7921e+06 -0.0114402 -1.32186e-10 1.35254e+07 -1.88517e-10 -481661)
(-9.7921e+06 0.0368715 2.67137e-10 1.35254e+07 1.88517e-10 -481661)
(-9.7921e+06 0.00801872 -1.35046e-18 1.35254e+07 3.77034e-10 -481661)
(-9.7921e+06 0.00770597 2.65294e-10 1.35254e+07 1.88517e-10 -481661)
(-9.7921e+06 -0.0160029 2.65294e-10 1.35254e+07 -1.88517e-10 -481661)
(-9.7921e+06 0.0247652 1.31265e-10 1.35254e+07 -7.54068e-10 -481661)
(-9.7921e+06 -0.0634115 -5.26901e-10 1.35254e+07 -3.48564e-20 -481661)
(-9.7921e+06 0.0555197 -1.38636e-10 1.35254e+07 4.99921e-18 -481661)
(-9.7921e+06 -0.0421191 -2.61608e-10 1.35254e+07 -1.88517e-10 -481661)
(-9.7921e+06 0.0166127 -2.67137e-10 1.35254e+07 5.65551e-10 -481661)
(-9.7921e+06 -0.0299011 -9.21456e-13 1.35254e+07 1.88517e-10 -481661)
(-9.7921e+06 -0.00837395 1.33108e-10 1.35254e+07 3.45719e-19 -481661)
(-9.7921e+06 0.00109665 1.32186e-10 1.35254e+07 -1.88517e-10 -481661)
(-9.7921e+06 4.79532e-05 9.21457e-13 1.35254e+07 -1.88517e-10 -481661)
(-9.7921e+06 0.0273263 0 1.35254e+07 0 -481661)
(-9.7921e+06 -0.0380121 -1.32186e-10 1.35254e+07 1.88517e-10 -481661)
(-9.7921e+06 0.0496214 -6.73171e-19 1.35254e+07 3.77034e-10 -481661)
(-9.7921e+06 -0.055708 1.30343e-10 1.35254e+07 -1.88517e-10 -481661)
(-9.7921e+06 0.0374859 -1.31265e-10 1.35254e+07 -3.77034e-10 -481661)
(-9.7921e+06 -0.0545154 2.68058e-10 1.35254e+07 3.77034e-10 -481661)
(-9.7921e+06 0.0125185 2.60686e-10 1.35254e+07 -3.77034e-10 -481661)
(-9.7921e+06 -0.0155023 -2.60686e-10 1.35254e+07 -3.77034e-10 -481661)
(-9.7921e+06 0.0272391 -1.36793e-10 1.35254e+07 5.33019e-18 -481661)
(-9.7921e+06 -0.0376294 -3.93794e-10 1.35254e+07 3.77034e-10 -481661)
(-9.7921e+06 0.0631341 2.62529e-10 1.35254e+07 7.54068e-10 -481661)
(-9.7921e+06 -0.0375655 -1.84291e-12 1.35254e+07 -3.77034e-10 -481661)
(-9.7921e+06 0.0249296 -1.30343e-10 1.35254e+07 -1.88517e-10 -481661)
(-9.7921e+06 -0.0176445 -1.34029e-10 1.35254e+07 1.88517e-10 -481661)
(-9.7921e+06 0.0131336 1.32186e-10 1.35254e+07 -1.88517e-10 -481661)
(-9.7921e+06 -0.0235836 -1.32186e-10 1.35254e+07 -1.88517e-10 -481661)
(-9.7921e+06 0.00640354 -1.84291e-12 1.35254e+07 -3.77034e-10 -481661)
(-9.7921e+06 -0.0187767 -2.64372e-10 1.35254e+07 -3.77034e-10 -481661)
(-9.7921e+06 0.000327792 -5.30587e-10 1.35254e+07 3.77034e-10 -481661)
(-9.7921e+06 0.0245338 -2.66215e-10 1.35254e+07 7.54068e-10 -481661)
(-9.7921e+06 -0.0332675 2.62529e-10 1.35254e+07 -1.18613e-18 -481661)
(-9.7921e+06 0.00326589 3.68583e-12 1.35254e+07 -7.20999e-19 -481661)
(-9.7921e+06 0.0276666 2.64372e-10 1.35254e+07 3.77034e-10 -481661)
(-9.7921e+06 -0.00568426 -1.84291e-12 1.35254e+07 -3.77034e-10 -481661)
(-9.7921e+06 0.000253151 -1.29422e-10 1.35254e+07 4.14037e-18 -481661)
(-9.7921e+06 -0.0056558 2.64372e-10 1.35254e+07 3.77034e-10 -481661)
(-9.7921e+06 0.0353577 0 1.35254e+07 0 -481661)
(-9.7921e+06 -0.0343358 1.31265e-10 1.35254e+07 -3.77034e-10 -481661)
(-9.7921e+06 0.0230986 -2.83408e-18 1.35254e+07 -7.54068e-10 -481661)
(-9.7921e+06 -0.0337796 -3.9748e-10 1.35254e+07 -3.77034e-10 -481661)
(-9.7921e+06 0.0299622 -3.99323e-10 1.35254e+07 7.48707e-18 -481661)
(-9.7921e+06 -0.00942107 -3.96558e-10 1.35254e+07 5.65551e-10 -481661)
(-9.7921e+06 0.00292942 1.29422e-10 1.35254e+07 3.77034e-10 -481661)
(-9.7921e+06 0.0309916 -2.64372e-10 1.35254e+07 2.82048e-18 -481661)
(-9.7921e+06 -0.0443468 -1.33108e-10 1.35254e+07 3.77034e-10 -481661)
(-9.7921e+06 0.0567544 5.29666e-10 1.35254e+07 -1.88517e-10 -481661)
(-9.7921e+06 -0.0191871 3.68583e-12 1.35254e+07 -4.71244e-20 -481661)
(-9.7921e+06 -0.00639726 -5.52874e-12 1.35254e+07 -3.77034e-10 -481661)
(-9.7921e+06 -0.0213805 -3.91951e-10 1.35254e+07 -4.31057e-18 -481661)
(-9.7921e+06 0.035589 2.60686e-10 1.35254e+07 3.77034e-10 -481661)
(-9.7921e+06 -0.0223855 -1.285e-10 1.35254e+07 1.88517e-10 -481661)
(-9.7921e+06 0.0257447 1.25736e-10 1.35254e+07 -3.77034e-10 -481661)
(-9.7921e+06 -0.0473335 -3.9103e-10 1.35254e+07 -1.88517e-10 -481661)
(-9.7921e+06 0.00568595 2.61608e-10 1.35254e+07 5.65551e-10 -481661)
(-9.7921e+06 -0.0495899 1.3495e-10 1.35254e+07 1.207e-18 -481661)
(-9.7921e+06 0.0567993 -1.84291e-12 1.35254e+07 1.11828e-18 -481661)
(-9.7921e+06 -0.0656889 1.34029e-10 1.35254e+07 -1.88517e-10 -481661)
(-9.7921e+06 0.0665051 -1.34029e-10 1.35254e+07 -1.88517e-10 -481661)
(-9.7921e+06 -0.0422594 -9.21455e-13 1.35254e+07 -5.65551e-10 -481661)
(-9.7921e+06 0.0509776 -5.26901e-10 1.35254e+07 3.77034e-10 -481661)
(-9.7921e+06 -0.0281603 1.27579e-10 1.35254e+07 3.77034e-10 -481661)
(-9.7921e+06 0.00324827 1.84291e-12 1.35254e+07 -3.77034e-10 -481661)
(-9.7921e+06 -0.00522933 2.68058e-10 1.35254e+07 3.77034e-10 -481661)
(-9.7921e+06 -0.00960132 -2.76437e-12 1.35254e+07 1.88517e-10 -481661)
(-9.7921e+06 -0.00495717 -3.35749e-19 1.35254e+07 -3.77034e-10 -481661)
(-9.7921e+06 -0.0187455 -1.32186e-10 1.35254e+07 -1.88517e-10 -481661)
(-9.7921e+06 0.0075824 -1.33108e-10 1.35254e+07 9.72538e-19 -481661)
(-9.7921e+06 0.0314413 9.21456e-13 1.35254e+07 1.88517e-10 -481661)
(-9.7921e+06 -0.0190129 3.9748e-10 1.35254e+07 -3.32562e-18 -481661)
(-9.7921e+06 0.0202554 1.84291e-12 1.35254e+07 -5.15769e-19 -481661)
(-9.7921e+06 -0.0223437 1.29422e-10 1.35254e+07 -3.77034e-10 -481661)
(-9.7921e+06 0.0203573 -2.58843e-10 1.35254e+07 3.77034e-10 -481661)
(-9.7921e+06 -0.0237117 3.90108e-10 1.35254e+07 -3.33919e-18 -481661)
(-9.7921e+06 0.0160132 -3.92872e-10 1.35254e+07 -5.65551e-10 -481661)
(-9.7921e+06 -0.00128891 -1.84291e-12 1.35254e+07 3.77034e-10 -481661)
(-9.7921e+06 -0.014676 9.21457e-13 1.35254e+07 1.88517e-10 -481661)
(-9.7921e+06 0.00693133 1.33108e-10 1.35254e+07 3.77034e-10 -481661)
(-9.7921e+06 -0.00890966 1.285e-10 1.35254e+07 -5.65551e-10 -481661)
(-9.7921e+06 0.0101477 7.37165e-12 1.35254e+07 -4.40254e-18 -481661)
(-9.7921e+06 0.0219124 1.27579e-10 1.35254e+07 3.77034e-10 -481661)
(-9.7921e+06 -0.0215423 -1.29422e-10 1.35254e+07 1.93026e-18 -481661)
(-9.7921e+06 0.0390801 2.62529e-10 1.35254e+07 1.35508e-20 -481661)
(-9.7921e+06 -0.0225423 7.28341e-19 1.35254e+07 -7.54068e-10 -481661)
(-9.7921e+06 0.0220844 -2.60686e-10 1.35254e+07 3.77034e-10 -481661)
(-9.7921e+06 -0.0196847 -3.68582e-12 1.35254e+07 7.54068e-10 -481661)
(-9.7921e+06 -0.00527834 5.30587e-10 1.35254e+07 -3.77034e-10 -481661)
(-9.7921e+06 -0.00258748 -1.30343e-10 1.35254e+07 -1.88517e-10 -481661)
(-9.7921e+06 -0.0283019 9.24008e-19 1.35254e+07 3.77034e-10 -481661)
(-9.7921e+06 0.0445217 1.30343e-10 1.35254e+07 -1.88517e-10 -481661)
(-9.7921e+06 -0.0202114 -1.33108e-10 1.35254e+07 -7.54068e-10 -481661)
(-9.7921e+06 0.0139179 4.60728e-12 1.35254e+07 1.88517e-10 -481661)
(-9.7921e+06 -0.0265895 -1.35872e-10 1.35254e+07 5.65551e-10 -481661)
(-9.7921e+06 0.0215032 0 1.35254e+07 0 -481661)
(-9.7921e+06 -0.0146194 -9.21457e-13 1.35254e+07 -1.88517e-10 -481661)
(-9.7921e+06 -0.000442473 -9.21459e-13 1.35254e+07 -5.65551e-10 -481661)
(-9.7921e+06 -0.0177454 -2.61608e-10 1.35254e+07 1.88517e-10 -481661)
(-9.7921e+06 0.0361309 1.29422e-10 1.35254e+07 3.77034e-10 -481661)
(-9.7921e+06 -0.00507673 -9.21456e-13 1.35254e+07 -5.65551e-10 -481661)
(-9.7921e+06 -0.00657887 -2.62529e-10 1.35254e+07 -1.16729e-18 -481661)
(-9.7921e+06 0.00671211 -1.84291e-12 1.35254e+07 3.77034e-10 -481661)
(-9.55671e+06 -0.00957529 -1.31706e-10 1.32157e+07 4.59554e-20 -469071)
(-9.55671e+06 0.0128529 -2.62757e-10 1.32157e+07 -3.63387e-10 -469071)
(-9.55671e+06 -0.0128932 -9.72041e-14 1.32157e+07 1.19984e-18 -469071)
(-9.55671e+06 0.0187695 -8.86648e-13 1.32157e+07 5.45081e-10 -469071)
(-9.55671e+06 -0.0271842 -2.65745e-10 1.32157e+07 -3.63387e-10 -469071)
(-9.55671e+06 0.0198458 1.33382e-10 1.32157e+07 -6.66449e-18 -469071)
(-9.55671e+06 -0.0111107 -4.10529e-12 1.32157e+07 2.53318e-18 -469071)
(-9.55671e+06 0.0194616 2.89069e-12 1.32157e+07 1.98547e-18 -469071)
(-9.55671e+06 0.000596819 -1.35253e-10 1.32157e+07 3.63387e-10 -469071)
(-9.55671e+06 0.00775172 1.30164e-10 1.32157e+07 -1.81694e-10 -469071)
(-9.55671e+06 -0.0112315 -2.4292e-12 1.32157e+07 -7.58483e-19 -469071)
(-9.55671e+06 0.0181995 3.95678e-10 1.32157e+07 3.63387e-10 -469071)
(-9.55671e+06 -0.0391938 -2.60328e-10 1.32157e+07 3.63387e-10 -469071)
(-9.55671e+06 0.0313339 -1.32265e-10 1.32157e+07 -3.63387e-10 -469071)
(-9.55671e+06 -0.0307545 -3.89143e-10 1.32157e+07 2.09251e-18 -469071)
(-9.55671e+06 0.0114314 -2.30748e-13 1.32157e+07 1.81694e-10 -469071)
(-9.55671e+06 -0.0173639 -8.88874e-19 1.32157e+07 -3.63387e-10 -469071)
(-9.55671e+06 -0.00213105 1.31378e-10 1.32157e+07 -1.81694e-10 -469071)
(-9.55671e+06 0.000364155 -1.32921e-10 1.32157e+07 4.16604e-19 -469071)
(-9.55671e+06 -0.00410227 -2.63413e-10 1.32157e+07 1.35898e-18 -469071)
(-9.55671e+06 0.0165479 8.86648e-13 1.32157e+07 1.81694e-10 -469071)
(-9.55671e+06 -0.0256071 -2.63085e-10 1.32157e+07 1.81694e-10 -469071)
(-9.55671e+06 0.0298758 1.31706e-10 1.32157e+07 -1.57856e-18 -469071)
(-9.55671e+06 -0.0359237 1.30492e-10 1.32157e+07 7.64178e-19 -469071)
(-9.55671e+06 0.0269976 -1.33152e-10 1.32157e+07 -5.45081e-10 -469071)
(-9.55671e+06 -0.0312435 -1.29702e-10 1.32157e+07 -1.81694e-10 -469071)
(-9.55671e+06 0.0125624 1.27504e-10 1.32157e+07 3.63387e-10 -469071)
(-9.55671e+06 -0.014625 -5.2351e-10 1.32157e+07 1.81694e-10 -469071)
(-9.55671e+06 0.0178907 -1.31378e-10 1.32157e+07 1.81694e-10 -469071)
(-9.55671e+06 -0.025373 2.75715e-12 1.32157e+07 -1.81694e-10 -469071)
(-9.55671e+06 0.0369895 2.63644e-10 1.32157e+07 1.81694e-10 -469071)
(-9.55671e+06 -0.0240099 2.60753e-10 1.32157e+07 1.81694e-10 -469071)
(-9.55671e+06 0.0188365 2.98789e-12 1.32157e+07 4.73499e-19 -469071)
(-9.55671e+06 -0.0128913 -1.44534e-12 1.32157e+07 -1.81693e-10 -469071)
(-9.55671e+06 0.00963814 1.44534e-12 1.32157e+07 -1.81694e-10 -469071)
(-9.55671e+06 -0.0138153 -5.58697e-13 1.32157e+07 2.22501e-20 -469071)
(-9.55671e+06 0.00607473 8.86648e-13 1.32157e+07 -1.81694e-10 -469071)
(-9.55671e+06 -0.010482 -2.5921e-10 1.32157e+07 3.63387e-10 -469071)
(-9.55671e+06 -0.0017906 -2.60328e-10 1.32157e+07 3.63387e-10 -469071)
(-9.55671e+06 0.0140248 6.55903e-13 1.32157e+07 -3.63387e-10 -469071)
(-9.55671e+06 -0.0142012 5.2617e-10 1.32157e+07 -3.63387e-10 -469071)
(-9.55671e+06 0.00387088 0 1.32157e+07 0 -469071)
(-9.55671e+06 0.0115011 2.62757e-10 1.32157e+07 3.63387e-10 -469071)
(-9.55671e+06 -0.00351257 -2.65994e-12 1.32157e+07 1.81694e-10 -469071)
(-9.55671e+06 0.00612402 1.2146e-12 1.32157e+07 -3.63387e-10 -469071)
(-9.55671e+06 -0.00277963 -1.31476e-10 1.32157e+07 1.81694e-10 -469071)
(-9.55671e+06 0.0224253 2.60753e-10 1.32157e+07 1.81693e-10 -469071)
(-9.55671e+06 -0.0200137 -1.2146e-12 1.32157e+07 -3.63387e-10 -469071)
(-9.55671e+06 0.0190826 -2.61639e-10 1.32157e+07 3.04939e-18 -469071)
(-9.55671e+06 -0.0177198 2.75715e-12 1.32157e+07 1.81694e-10 -469071)
(-9.55671e+06 0.0203768 -3.91475e-10 1.32157e+07 6.09578e-18 -469071)
(-9.55671e+06 -0.00437956 -3.92362e-10 1.32157e+07 -1.81694e-10 -469071)
(-9.55671e+06 0.000920836 -1.30261e-10 1.32157e+07 1.81694e-10 -469071)
(-9.55671e+06 0.0214318 -2.62757e-10 1.32157e+07 3.63387e-10 -469071)
(-9.55671e+06 -0.0243299 -2.33199e-12 1.32157e+07 -7.26774e-10 -469071)
(-9.55671e+06 0.032938 2.63874e-10 1.32157e+07 -3.63387e-10 -469071)
(-9.55671e+06 -0.0126056 -5.26826e-10 1.32157e+07 7.26774e-10 -469071)
(-9.55671e+06 0.00531972 1.29046e-10 1.32157e+07 1.81694e-10 -469071)
(-9.55671e+06 -0.0121462 -5.23182e-10 1.32157e+07 -3.63387e-10 -469071)
(-9.55671e+06 0.0178462 2.62757e-10 1.32157e+07 -3.57011e-18 -469071)
(-9.55671e+06 -0.0202481 -2.62198e-10 1.32157e+07 3.63387e-10 -469071)
(-9.55671e+06 0.016661 3.92131e-10 1.32157e+07 -8.12227e-18 -469071)
(-9.55671e+06 -0.0265175 -3.91475e-10 1.32157e+07 -3.63387e-10 -469071)
(-9.55671e+06 0.0123137 1.30164e-10 1.32157e+07 -1.81694e-10 -469071)
(-9.55671e+06 -0.0329787 1.32265e-10 1.32157e+07 3.63387e-10 -469071)
(-9.55671e+06 0.0344169 5.23279e-10 1.32157e+07 -1.27972e-17 -469071)
(-9.55671e+06 -0.0415879 -1.29374e-10 1.32157e+07 -3.40404e-18 -469071)
(-9.55671e+06 0.0430406 -2.33199e-12 1.32157e+07 -4.8417e-20 -469071)
(-9.55671e+06 -0.0294253 -2.59866e-10 1.32157e+07 4.57549e-18 -469071)
(-9.55671e+06 0.0320615 -3.92921e-10 1.32157e+07 1.81694e-10 -469071)
(-9.55671e+06 -0.0170247 -1.2146e-12 1.32157e+07 -3.63387e-10 -469071)
(-9.55671e+06 0.006559 -1.32593e-10 1.32157e+07 -5.45081e-10 -469071)
(-9.55671e+06 -0.0032143 -2.60522e-10 1.32157e+07 3.63387e-10 -469071)
(-9.55671e+06 -0.00459209 2.5898e-10 1.32157e+07 5.4508e-10 -469071)
(-9.55671e+06 -0.00112888 1.32593e-10 1.32157e+07 -1.81694e-10 -469071)
(-9.55671e+06 -0.00621079 1.2146e-12 1.32157e+07 4.50596e-19 -469071)
(-9.55671e+06 0.002104 3.27953e-13 1.32157e+07 -1.81694e-10 -469071)
(-9.55671e+06 0.0154639 -8.86647e-13 1.32157e+07 -5.45081e-10 -469071)
(-9.55671e+06 -0.0129212 1.31609e-10 1.32157e+07 7.11827e-19 -469071)
(-9.55671e+06 0.0155096 2.61639e-10 1.32157e+07 3.63387e-10 -469071)
(-9.55671e+06 -0.0136361 1.30492e-10 1.32157e+07 -6.24806e-19 -469071)
(-9.55671e+06 0.0143571 -3.9269e-10 1.32157e+07 3.20428e-18 -469071)
(-9.55671e+06 -0.0139391 1.28949e-10 1.32157e+07 1.81694e-10 -469071)
(-9.55671e+06 0.00967794 1.8705e-12 1.32157e+07 -5.09787e-19 -469071)
(-9.55671e+06 -0.00178556 8.86648e-13 1.32157e+07 -1.81694e-10 -469071)
(-9.55671e+06 -0.00639734 -1.31706e-10 1.32157e+07 1.88225e-19 -469071)
(-9.55671e+06 0.00542816 -3.27951e-13 1.32157e+07 1.81694e-10 -469071)
(-9.55671e+06 -0.00461187 1.26945e-10 1.32157e+07 -3.63387e-10 -469071)
(-9.55671e+06 0.00478891 5.31989e-12 1.32157e+07 -2.413e-18 -469071)
(-9.55671e+06 0.013489 1.27832e-10 1.32157e+07 5.45081e-10 -469071)
(-9.55671e+06 -0.0123881 -1.31378e-10 1.32157e+07 -1.81694e-10 -469071)
(-9.55671e+06 0.0230235 5.25283e-10 1.32157e+07 -1.81694e-10 -469071)
(-9.55671e+06 -0.0155671 -1.31706e-10 1.32157e+07 2.89224e-19 -469071)
(-9.55671e+06 0.0143075 -2.5921e-10 1.32157e+07 3.63387e-10 -469071)
(-9.55671e+06 -0.0100389 1.26386e-10 1.32157e+07 -3.63387e-10 -469071)
(-9.55671e+06 -0.00135077 2.64761e-10 1.32157e+07 -1.81694e-10 -469071)
(-9.55671e+06 0.00079428 -1.44534e-12 1.32157e+07 5.45081e-10 -469071)
(-9.55671e+06 -0.0182187 0 1.32157e+07 0 -469071)
(-9.55671e+06 0.0231371 5.25611e-10 1.32157e+07 -3.55189e-18 -469071)
(-9.55671e+06 -0.0143151 -1.44534e-12 1.32157e+07 -5.45081e-10 -469071)
(-9.55671e+06 0.0123243 -2.57206e-10 1.32157e+07 1.81694e-10 -469071)
(-9.55671e+06 -0.0172709 1.28488e-10 1.32157e+07 5.45081e-10 -469071)
(-9.55671e+06 0.0123204 -1.3082e-10 1.32157e+07 -1.81694e-10 -469071)
(-9.55671e+06 -0.00984767 -1.32593e-10 1.32157e+07 -1.81694e-10 -469071)
(-9.55671e+06 0.00499961 -1.3082e-10 1.32157e+07 -1.81694e-10 -469071)
(-9.55671e+06 -0.0109422 -2.60984e-10 1.32157e+07 -8.91586e-19 -469071)
(-9.55671e+06 0.018024 1.30492e-10 1.32157e+07 -1.59128e-18 -469071)
(-9.55671e+06 -0.00585552 0 1.32157e+07 0 -469071)
(-9.55671e+06 -0.0021515 -2.60984e-10 1.32157e+07 -6.29406e-19 -469071)
(-9.55671e+06 0.00371307 0 1.32157e+07 0 -469071)
(-9.22785e+06 -0.00543331 3.27838e-13 1.29077e+07 -1.75176e-10 -464425)
(-9.22785e+06 0.0023239 1.68589e-12 1.29077e+07 -8.59801e-19 -464425)
(-9.22785e+06 -0.00784523 -5.13018e-10 1.29077e+07 -1.26299e-18 -464425)
(-9.22785e+06 0.00858834 -2.54893e-10 1.29077e+07 1.75176e-10 -464425)
(-9.22785e+06 0.000592079 3.83932e-10 1.29077e+07 -5.08079e-19 -464425)
(-9.22785e+06 0.00896345 -2.53395e-10 1.29077e+07 -3.50352e-10 -464425)
(-9.22785e+06 -0.00816406 -1.29882e-10 1.29077e+07 4.75187e-19 -464425)
(-9.22785e+06 0.000209293 -2.53395e-10 1.29077e+07 3.50352e-10 -464425)
(-9.22785e+06 -0.0066921 1.27353e-10 1.29077e+07 1.75176e-10 -464425)
(-9.22785e+06 0.00670561 2.60279e-10 1.29077e+07 -1.15744e-19 -464425)
(-9.22785e+06 -0.00478242 -1.87316e-12 1.29077e+07 -5.25529e-10 -464425)
(-9.22785e+06 0.00873679 2.71611e-12 1.29077e+07 -3.50352e-10 -464425)
(-9.22785e+06 -0.00835756 2.55081e-10 1.29077e+07 7.00705e-10 -464425)
(-9.22785e+06 0.00326251 -2.52884e-12 1.29077e+07 1.75176e-10 -464425)
(-9.22785e+06 -0.0131884 1.17078e-12 1.29077e+07 -3.50352e-10 -464425)
(-9.22785e+06 0.00565651 2.56766e-10 1.29077e+07 -1.29585e-18 -464425)
(-9.22785e+06 -0.00360941 1.27025e-10 1.29077e+07 -6.62558e-19 -464425)
(-9.22785e+06 0.0021373 2.52883e-12 1.29077e+07 1.75176e-10 -464425)
(-9.22785e+06 -0.00224034 6.55675e-13 1.29077e+07 3.50352e-10 -464425)
(-9.22785e+06 -0.00858115 5.155e-10 1.29077e+07 -3.50352e-10 -464425)
(-9.22785e+06 0.00255627 3.37178e-12 1.29077e+07 1.72549e-18 -464425)
(-9.22785e+06 -0.0101316 1.2651e-10 1.29077e+07 -2.44409e-18 -464425)
(-9.22785e+06 0.00592972 3.87491e-10 1.29077e+07 -1.75176e-10 -464425)
(-9.22785e+06 -0.0123105 1.27868e-10 1.29077e+07 1.75176e-10 -464425)
(-9.22785e+06 0.0105166 -1.28711e-10 1.29077e+07 7.07148e-19 -464425)
(-9.22785e+06 -0.00563461 -2.5391e-10 1.29077e+07 -2.81189e-18 -464425)
(-9.22785e+06 0.00918546 2.01373e-12 1.29077e+07 1.75176e-10 -464425)
(-9.22785e+06 -0.011648 6.5567e-13 1.29077e+07 8.86598e-19 -464425)
(-9.22785e+06 0.00621257 1.27025e-10 1.29077e+07 -7.00705e-10 -464425)
(-9.22785e+06 -0.00972951 1.29413e-10 1.29077e+07 -1.75176e-10 -464425)
(-9.22785e+06 0.00504984 -1.68589e-12 1.29077e+07 3.50352e-10 -464425)
(-9.22785e+06 -0.00794528 -2.34157e-12 1.29077e+07 -1.27953e-18 -464425)
(-9.22785e+06 0.00818825 1.28383e-10 1.29077e+07 1.75176e-10 -464425)
(-9.22785e+06 -0.00752569 -2.01373e-12 1.29077e+07 1.75176e-10 -464425)
(-9.22785e+06 0.00379317 -2.57094e-10 1.29077e+07 -1.75176e-10 -464425)
(-9.22785e+06 -0.00229017 1.28383e-10 1.29077e+07 -1.75176e-10 -464425)
(-9.22785e+06 0.00335328 0 1.29077e+07 0 -464425)
(-9.22785e+06 -0.000913155 2.57422e-10 1.29077e+07 -1.30026e-18 -464425)
(-9.22785e+06 -0.0029131 2.55081e-10 1.29077e+07 -2.46263e-18 -464425)
(-9.22785e+06 7.38599e-06 -4.02745e-12 1.29077e+07 -3.50352e-10 -464425)
(-9.22785e+06 0.00447323 2.58452e-10 1.29077e+07 -3.71687e-18 -464425)
(-9.22785e+06 0.00240373 -1.68589e-12 1.29077e+07 3.50352e-10 -464425)
(-9.22785e+06 -0.00534613 1.68589e-12 1.29077e+07 3.50352e-10 -464425)
(-9.22785e+06 -0.0010718 2.5405e-10 1.29077e+07 -7.21842e-18 -464425)
(-9.22785e+06 0.00908349 -1.25667e-10 1.29077e+07 1.75176e-10 -464425)
(-9.22785e+06 -0.0018479 -1.54532e-12 1.29077e+07 2.34026e-18 -464425)
(-9.22785e+06 0.00405233 2.59295e-10 1.29077e+07 -1.75176e-10 -464425)
(-9.22785e+06 -0.00429613 -1.29226e-10 1.29077e+07 3.50352e-10 -464425)
(-9.22785e+06 0.00962885 -1.03022e-12 1.29077e+07 -7.00705e-10 -464425)
(-9.22785e+06 -0.00242238 -1.26323e-10 1.29077e+07 -1.75176e-10 -464425)
(-9.22785e+06 0.00511043 1.26182e-10 1.29077e+07 5.25529e-10 -464425)
(-9.22785e+06 9.31892e-05 1.29554e-10 1.29077e+07 1.75176e-10 -464425)
(-9.22785e+06 -0.00135599 1.49862e-12 1.29077e+07 1.75176e-10 -464425)
(-9.22785e+06 0.00661491 -8.42945e-13 1.29077e+07 -1.75176e-10 -464425)
(-9.22785e+06 -0.00349729 2.56251e-10 1.29077e+07 -3.50352e-10 -464425)
(-9.22785e+06 0.00378969 -2.50866e-10 1.29077e+07 5.25529e-10 -464425)
(-9.22785e+06 -0.00636751 -1.21749e-12 1.29077e+07 1.75176e-10 -464425)
(-9.22785e+06 0.0130235 2.59623e-10 1.29077e+07 -3.50352e-10 -464425)
(-9.22785e+06 -0.00376622 -1.30069e-10 1.29077e+07 -1.75176e-10 -464425)
(-9.22785e+06 -0.00148294 3.37178e-12 1.29077e+07 -5.99851e-18 -464425)
(-9.22785e+06 -0.013706 1.2651e-10 1.29077e+07 -6.76231e-18 -464425)
(-9.22785e+06 0.0044913 1.87272e-13 1.29077e+07 -1.75176e-10 -464425)
(-9.22785e+06 -0.00494369 1.27868e-10 1.29077e+07 1.75176e-10 -464425)
(-9.22785e+06 0.0137318 3.27838e-13 1.29077e+07 -1.75176e-10 -464425)
(-9.22785e+06 -0.0127218 -8.42945e-13 1.29077e+07 -5.25529e-10 -464425)
(-9.22785e+06 0.00630439 2.57797e-10 1.29077e+07 3.50352e-10 -464425)
(-9.22785e+06 -0.013431 -1.87316e-12 1.29077e+07 5.25529e-10 -464425)
(-9.22785e+06 0.0116879 2.57937e-10 1.29077e+07 -1.81313e-18 -464425)
(-9.22785e+06 -0.0135818 -2.56766e-10 1.29077e+07 1.98842e-18 -464425)
(-9.22785e+06 0.00605625 2.57937e-10 1.29077e+07 -5.00261e-18 -464425)
(-9.22785e+06 -0.00660942 1.28196e-10 1.29077e+07 -2.73188e-18 -464425)
(-9.22785e+06 0.00574243 -2.54565e-10 1.29077e+07 2.00468e-18 -464425)
(-9.22785e+06 -0.00206716 -2.55268e-10 1.29077e+07 -1.75176e-10 -464425)
(-9.22785e+06 0.000174388 2.56766e-10 1.29077e+07 -3.50352e-10 -464425)
(-9.22785e+06 0.00106903 1.2754e-10 1.29077e+07 -2.25905e-19 -464425)
(-9.22785e+06 0.00439172 -1.29882e-10 1.29077e+07 1.21748e-18 -464425)
(-9.22785e+06 -0.00348015 1.2754e-10 1.29077e+07 -1.03935e-18 -464425)
(-9.22785e+06 -0.00165925 -2.57422e-10 1.29077e+07 1.98377e-18 -464425)
(-9.22785e+06 -0.0056136 -2.56766e-10 1.29077e+07 -3.50352e-10 -464425)
(-9.22785e+06 0.00618729 1.03022e-12 1.29077e+07 5.05619e-18 -464425)
(-9.22785e+06 -0.00350612 -8.42945e-13 1.29077e+07 5.25529e-10 -464425)
(-9.22785e+06 0.00649231 1.17078e-12 1.29077e+07 3.50352e-10 -464425)
(-9.22785e+06 -0.00252184 -1.87316e-12 1.29077e+07 -5.25529e-10 -464425)
(-9.22785e+06 0.00107019 1.30256e-10 1.29077e+07 -3.50352e-10 -464425)
(-9.22785e+06 -0.00188777 -8.42944e-13 1.29077e+07 5.25529e-10 -464425)
(-9.22785e+06 0.00262734 -2.57094e-10 1.29077e+07 1.75176e-10 -464425)
(-9.22785e+06 0.00234123 -2.56251e-10 1.29077e+07 5.83019e-19 -464425)
(-9.22785e+06 0.000974854 1.26182e-10 1.29077e+07 -5.25529e-10 -464425)
(-9.22785e+06 -0.00196226 -2.52364e-10 1.29077e+07 2.63656e-18 -464425)
(-9.22785e+06 0.00315139 1.26182e-10 1.29077e+07 5.25529e-10 -464425)
(-9.22785e+06 -0.00188267 1.26182e-10 1.29077e+07 -5.25529e-10 -464425)
(-9.22785e+06 0.00429286 2.71611e-12 1.29077e+07 -3.21406e-18 -464425)
(-9.22785e+06 -0.00591534 -2.59623e-10 1.29077e+07 3.50352e-10 -464425)
(-9.22785e+06 0.00453509 1.68589e-12 1.29077e+07 -1.84151e-18 -464425)
(-9.22785e+06 -0.00012836 2.54565e-10 1.29077e+07 1.82727e-19 -464425)
(-9.22785e+06 0.00168198 -2.54238e-10 1.29077e+07 -1.75176e-10 -464425)
(-9.22785e+06 0.00375767 -1.29039e-10 1.29077e+07 1.75176e-10 -464425)
(-9.22785e+06 -0.00451505 1.25339e-10 1.29077e+07 -3.50352e-10 -464425)
(-9.22785e+06 -0.000741044 1.29413e-10 1.29077e+07 -1.75176e-10 -464425)
(-9.22785e+06 -0.00721998 1.25854e-10 1.29077e+07 3.50352e-10 -464425)
(-9.22785e+06 0.00796207 -2.55081e-10 1.29077e+07 9.91572e-19 -464425)
(-9.22785e+06 -0.00472385 2.56766e-10 1.29077e+07 3.50352e-10 -464425)
(-9.22785e+06 0.00271787 1.28196e-10 1.29077e+07 3.50352e-10 -464425)
(-9.22785e+06 -0.00333215 1.29039e-10 1.29077e+07 -1.75176e-10 -464425)
(-9.22785e+06 0.00878467 -2.56251e-10 1.29077e+07 -3.50352e-10 -464425)
(-9.22785e+06 -0.00404892 8.42945e-13 1.29077e+07 -1.75176e-10 -464425)
(-9.22785e+06 -0.00255978 -2.57422e-10 1.29077e+07 3.76163e-19 -464425)
(-9.22785e+06 -0.00409162 0 1.29077e+07 0 -464425)
(-9.22785e+06 0.00344532 0 1.29077e+07 0 -464425)
(-9.22785e+06 0.000430107 0 1.29077e+07 0 -464425)
(-8.9652e+06 -0.00315227 -1.27773e-10 1.26172e+07 -4.40909e-19 -456313)
(-8.9652e+06 0.00155009 1.61426e-12 1.26172e+07 3.38022e-10 -456313)
(-8.9652e+06 -0.00468754 1.26158e-10 1.26172e+07 3.38022e-10 -456313)
(-8.9652e+06 0.00582838 -9.55707e-13 1.26172e+07 -6.76044e-10 -456313)
(-8.9652e+06 0.00209738 2.5357e-10 1.26172e+07 -3.38022e-10 -456313)
(-8.9652e+06 0.00564571 -2.53272e-10 1.26172e+07 6.76044e-10 -456313)
(-8.9652e+06 -0.00597959 -9.55707e-13 1.26172e+07 -2.94247e-19 -456313)
(-8.9652e+06 -0.00214233 2.54887e-10 1.26172e+07 -3.38022e-10 -456313)
(-8.9652e+06 -0.00677083 -3.88707e-12 1.26172e+07 -3.38022e-10 -456313)
(-8.9652e+06 0.00346444 1.26456e-10 1.26172e+07 1.66877e-18 -456313)
(-8.9652e+06 -0.00362733 5.02658e-10 1.26172e+07 3.38022e-10 -456313)
(-8.9652e+06 0.00544525 -2.51e-10 1.26172e+07 -2.41413e-19 -456313)
(-8.9652e+06 -0.00315414 1.61426e-12 1.26172e+07 3.38022e-10 -456313)
(-8.9652e+06 0.000458342 -3.22852e-12 1.26172e+07 2.87948e-18 -456313)
(-8.9652e+06 -0.00635565 -1.26158e-10 1.26172e+07 -3.38022e-10 -456313)
(-8.9652e+06 0.00468452 0 1.26172e+07 0 -456313)
(-8.9652e+06 -0.000948088 -1.27773e-10 1.26172e+07 1.20714e-19 -456313)
(-8.9652e+06 0.000780356 0 1.26172e+07 0 -456313)
(-8.9652e+06 -0.00297823 2.47771e-10 1.26172e+07 -6.76044e-10 -456313)
(-8.9652e+06 -0.00697767 2.52911e-10 1.26172e+07 -3.49924e-18 -456313)
(-8.9652e+06 0.000262729 -2.56501e-10 1.26172e+07 6.76044e-10 -456313)
(-8.9652e+06 -0.00587885 -3.88707e-12 1.26172e+07 -3.38022e-10 -456313)
(-8.9652e+06 0.00200378 -2.52317e-10 1.26172e+07 3.58925e-18 -456313)
(-8.9652e+06 -0.00679279 -1.27773e-10 1.26172e+07 6.76044e-10 -456313)
(-8.9652e+06 0.00549999 1.24544e-10 1.26172e+07 7.69419e-19 -456313)
(-8.9652e+06 -0.00202978 1.27114e-10 1.26172e+07 -3.38022e-10 -456313)
(-8.9652e+06 0.00624874 1.255e-10 1.26172e+07 -5.21407e-19 -456313)
(-8.9652e+06 -0.00787091 2.51e-10 1.26172e+07 -4.85899e-19 -456313)
(-8.9652e+06 0.00355792 -1.27773e-10 1.26172e+07 1.6021e-18 -456313)
(-8.9652e+06 -0.00566659 2.27281e-12 1.26172e+07 3.43922e-19 -456313)
(-8.9652e+06 -0.00101714 1.61426e-12 1.26172e+07 3.38022e-10 -456313)
(-8.9652e+06 -0.0060722 -9.55708e-13 1.26172e+07 7.98031e-19 -456313)
(-8.9652e+06 0.00304237 3.22852e-12 1.26172e+07 -3.27188e-18 -456313)
(-8.9652e+06 -0.00421118 -1.27114e-10 1.26172e+07 3.38022e-10 -456313)
(-8.9652e+06 0.001933 1.26158e-10 1.26172e+07 -3.38022e-10 -456313)
(-8.9652e+06 -0.000150543 1.61426e-12 1.26172e+07 -3.38022e-10 -456313)
(-8.9652e+06 0.00243112 -1.61426e-12 1.26172e+07 -3.38022e-10 -456313)
(-8.9652e+06 0.000500532 9.55706e-13 1.26172e+07 -1.27014e-18 -456313)
(-8.9652e+06 -0.00115594 -2.53272e-10 1.26172e+07 6.76044e-10 -456313)
(-8.9652e+06 -0.00130058 -2.56997e-12 1.26172e+07 -3.38022e-10 -456313)
(-8.9652e+06 0.00449831 -2.4843e-10 1.26172e+07 -3.38022e-10 -456313)
(-8.9652e+06 0.00211979 -1.61426e-12 1.26172e+07 3.38022e-10 -456313)
(-8.9652e+06 -0.00336707 0 1.26172e+07 0 -456313)
(-8.9652e+06 -7.71411e-05 2.52614e-10 1.26172e+07 3.38022e-10 -456313)
(-8.9652e+06 0.00471018 -9.55707e-13 1.26172e+07 7.74971e-19 -456313)
(-8.9652e+06 -0.00193996 6.31386e-10 1.26172e+07 -3.38022e-10 -456313)
(-8.9652e+06 0.00174102 1.61426e-12 1.26172e+07 3.38022e-10 -456313)
(-8.9652e+06 0.00074266 2.50044e-10 1.26172e+07 1.90268e-19 -456313)
(-8.9652e+06 0.0062093 2.54228e-10 1.26172e+07 -1.60832e-18 -456313)
(-8.9652e+06 -0.000622199 -2.51955e-10 1.26172e+07 1.71516e-18 -456313)
(-8.9652e+06 0.00125864 1.27114e-10 1.26172e+07 -3.38022e-10 -456313)
(-8.9652e+06 0.000365046 1.255e-10 1.26172e+07 -1.96001e-18 -456313)
(-8.9652e+06 0.000245242 -6.5855e-13 1.26172e+07 3.38022e-10 -456313)
(-8.9652e+06 0.0030281 2.50044e-10 1.26172e+07 -2.31339e-19 -456313)
(-8.9652e+06 -0.00104461 1.27114e-10 1.26172e+07 -3.38022e-10 -456313)
(-8.9652e+06 -0.000310095 0 1.26172e+07 0 -456313)
(-8.9652e+06 -0.00447802 5.01999e-10 1.26172e+07 -4.02922e-18 -456313)
(-8.9652e+06 0.00904749 1.27114e-10 1.26172e+07 3.38022e-10 -456313)
(-8.9652e+06 -0.00144189 2.50044e-10 1.26172e+07 9.78851e-19 -456313)
(-8.9652e+06 -0.000533113 1.61426e-12 1.26172e+07 -3.38022e-10 -456313)
(-8.9652e+06 -0.00688542 2.52614e-10 1.26172e+07 3.38022e-10 -456313)
(-8.9652e+06 0.00287045 -2.54228e-10 1.26172e+07 -2.52376e-21 -456313)
(-8.9652e+06 -0.00189259 3.80387e-10 1.26172e+07 -3.38022e-10 -456313)
(-8.9652e+06 0.00973804 1.255e-10 1.26172e+07 -1.18381e-18 -456313)
(-8.9652e+06 -0.00585325 0 1.26172e+07 0 -456313)
(-8.9652e+06 0.00259301 -2.51e-10 1.26172e+07 3.14857e-18 -456313)
(-8.9652e+06 -0.0082151 5.04272e-10 1.26172e+07 -3.77657e-18 -456313)
(-8.9652e+06 0.00323967 3.80387e-10 1.26172e+07 3.38022e-10 -456313)
(-8.9652e+06 -0.00926793 -3.22852e-12 1.26172e+07 -1.45444e-18 -456313)
(-8.9652e+06 0.000922612 3.80387e-10 1.26172e+07 -3.38022e-10 -456313)
(-8.9652e+06 -0.00430887 -6.58552e-13 1.26172e+07 3.38022e-10 -456313)
(-8.9652e+06 0.00259409 1.24544e-10 1.26172e+07 -1.40303e-19 -456313)
(-8.9652e+06 -0.00159499 2.52614e-10 1.26172e+07 -3.38022e-10 -456313)
(-8.9652e+06 0.00160796 0 1.26172e+07 0 -456313)
(-8.9652e+06 0.00301167 5.08159e-10 1.26172e+07 3.38022e-10 -456313)
(-8.9652e+06 0.00425847 -9.55706e-13 1.26172e+07 1.55945e-18 -456313)
(-8.9652e+06 -0.00257767 3.22852e-12 1.26172e+07 6.56448e-20 -456313)
(-8.9652e+06 -0.00299312 -9.55707e-13 1.26172e+07 6.63466e-19 -456313)
(-8.9652e+06 -0.00336372 1.61426e-12 1.26172e+07 -3.38022e-10 -456313)
(-8.9652e+06 0.0031614 -2.51e-10 1.26172e+07 8.32224e-19 -456313)
(-8.9652e+06 -0.0015613 2.53272e-10 1.26172e+07 -1.99432e-18 -456313)
(-8.9652e+06 0.00330307 3.78772e-10 1.26172e+07 -2.38177e-18 -456313)
(-8.9652e+06 -0.000380889 5.04272e-10 1.26172e+07 -2.27679e-18 -456313)
(-8.9652e+06 0.000533014 -2.51e-10 1.26172e+07 1.30414e-18 -456313)
(-8.9652e+06 -0.000550279 -2.51658e-10 1.26172e+07 3.38022e-10 -456313)
(-8.9652e+06 0.00282366 1.26158e-10 1.26172e+07 3.38022e-10 -456313)
(-8.9652e+06 0.00143982 1.26158e-10 1.26172e+07 -3.38022e-10 -456313)