/*--------------------------------*- C++ -*----------------------------------*\
| =========                 |                                                 |
| \\      /  F ield         | OpenFOAM: The Open Source CFD Toolbox           |
|  \\    /   O peration     | Version:  2312                                  |
|   \\  /    A nd           | Website:  www.openfoam.com                      |
|    \\/     M anipulation  |                                                 |
\*---------------------------------------------------------------------------*/
FoamFile
{
    version     2.0;
    format      ascii;
    arch        "LSB;label=32;scalar=64";
    class       volVectorField;
    location    "70";
    object      D;
}
// * * * * * * * * * * * * * * * * * * * * * * * * * * * * * * * * * * * * * //

dimensions      [0 1 0 0 0 0 0];

internalField   nonuniform List<vector> 
12870
(
(2.71413 0.0193792 0)
(2.71358 0.0581336 0)
(2.71247 0.0968761 0)
(2.71081 0.135599 0)
(2.7086 0.174294 0)
(2.70583 0.212954 0)
(2.70252 0.25157 0)
(2.69865 0.290135 0)
(2.69423 0.328641 0)
(2.68926 0.367079 0)
(2.68375 0.405443 0)
(2.67768 0.443724 0)
(2.67108 0.481915 0)
(2.66392 0.520007 0)
(2.65622 0.557994 0)
(2.64799 0.595866 0)
(2.63921 0.633617 0)
(2.62989 0.671239 0)
(2.62004 0.708724 0)
(2.60965 0.746065 0)
(2.59873 0.783253 0)
(2.58728 0.820282 0)
(2.5753 0.857143 0)
(2.5628 0.89383 0)
(2.54978 0.930334 0)
(2.53623 0.966649 0)
(2.52217 1.00277 0)
(2.50759 1.03868 0)
(2.49251 1.07438 0)
(2.47691 1.10986 0)
(2.46081 1.14512 0)
(2.44421 1.18014 0)
(2.42711 1.21492 0)
(2.40951 1.24946 0)
(2.39142 1.28374 0)
(2.37285 1.31775 0)
(2.35379 1.3515 0)
(2.33425 1.38498 0)
(2.31424 1.41817 0)
(2.29375 1.45107 0)
(2.2728 1.48367 0)
(2.25138 1.51598 0)
(2.2295 1.54797 0)
(2.20717 1.57965 0)
(2.18439 1.611 0)
(2.16116 1.64203 0)
(2.13749 1.67272 0)
(2.11339 1.70308 0)
(2.08885 1.73308 0)
(2.06389 1.76273 0)
(2.03851 1.79202 0)
(2.01272 1.82095 0)
(1.98651 1.8495 0)
(1.9599 1.87768 0)
(1.93288 1.90548 0)
(1.90548 1.93288 0)
(1.87768 1.9599 0)
(1.8495 1.98651 0)
(1.82095 2.01272 0)
(1.79202 2.03851 0)
(1.76273 2.06389 0)
(1.73308 2.08885 0)
(1.70308 2.11339 0)
(1.67272 2.13749 0)
(1.64203 2.16116 0)
(1.611 2.18439 0)
(1.57965 2.20717 0)
(1.54797 2.2295 0)
(1.51598 2.25138 0)
(1.48367 2.2728 0)
(1.45107 2.29375 0)
(1.41817 2.31424 0)
(1.38498 2.33425 0)
(1.3515 2.35379 0)
(1.31775 2.37285 0)
(1.28374 2.39142 0)
(1.24946 2.40951 0)
(1.21492 2.42711 0)
(1.18014 2.44421 0)
(1.14512 2.46081 0)
(1.10986 2.47691 0)
(1.07438 2.49251 0)
(1.03868 2.50759 0)
(1.00277 2.52217 0)
(0.966649 2.53623 0)
(0.930334 2.54978 0)
(0.89383 2.5628 0)
(0.857143 2.5753 0)
(0.820282 2.58728 0)
(0.783253 2.59873 0)
(0.746065 2.60965 0)
(0.708724 2.62004 0)
(0.671239 2.62989 0)
(0.633618 2.63921 0)
(0.595866 2.64799 0)
(0.557994 2.65622 0)
(0.520007 2.66392 0)
(0.481915 2.67108 0)
(0.443724 2.67768 0)
(0.405443 2.68375 0)
(0.367079 2.68926 0)
(0.328641 2.69423 0)
(0.290135 2.69865 0)
(0.25157 2.70252 0)
(0.212954 2.70583 0)
(0.174294 2.7086 0)
(0.135599 2.71081 0)
(0.0968761 2.71247 0)
(0.0581336 2.71358 0)
(0.0193792 2.71413 0)
(2.69724 0.0192586 0)
(2.69669 0.0577717 0)
(2.69559 0.0962731 0)
(2.69394 0.134755 0)
(2.69174 0.173209 0)
(2.68899 0.211628 0)
(2.6857 0.250004 0)
(2.68185 0.288329 0)
(2.67746 0.326595 0)
(2.67252 0.364794 0)
(2.66704 0.402919 0)
(2.66102 0.440962 0)
(2.65445 0.478915 0)
(2.64734 0.516771 0)
(2.63969 0.554521 0)
(2.6315 0.592157 0)
(2.62278 0.629674 0)
(2.61352 0.667061 0)
(2.60373 0.704313 0)
(2.59341 0.741421 0)
(2.58255 0.778378 0)
(2.57118 0.815176 0)
(2.55927 0.851808 0)
(2.54685 0.888266 0)
(2.53391 0.924544 0)
(2.52045 0.960632 0)
(2.50647 0.996525 0)
(2.49199 1.03221 0)
(2.47699 1.06769 0)
(2.46149 1.10295 0)
(2.44549 1.13799 0)
(2.42899 1.1728 0)
(2.412 1.20736 0)
(2.39451 1.24168 0)
(2.37654 1.27575 0)
(2.35808 1.30955 0)
(2.33914 1.34309 0)
(2.31972 1.37635 0)
(2.29983 1.40934 0)
(2.27947 1.44204 0)
(2.25865 1.47444 0)
(2.23736 1.50654 0)
(2.21562 1.53833 0)
(2.19343 1.56982 0)
(2.17079 1.60098 0)
(2.14771 1.63181 0)
(2.12419 1.66231 0)
(2.10023 1.69248 0)
(2.07585 1.72229 0)
(2.05105 1.75176 0)
(2.02582 1.78087 0)
(2.00019 1.80962 0)
(1.97414 1.83799 0)
(1.9477 1.866 0)
(1.92085 1.89362 0)
(1.89362 1.92085 0)
(1.866 1.9477 0)
(1.83799 1.97414 0)
(1.80962 2.00019 0)
(1.78087 2.02582 0)
(1.75176 2.05105 0)
(1.72229 2.07585 0)
(1.69248 2.10023 0)
(1.66231 2.12419 0)
(1.63181 2.14771 0)
(1.60098 2.17079 0)
(1.56982 2.19343 0)
(1.53833 2.21562 0)
(1.50654 2.23736 0)
(1.47444 2.25865 0)
(1.44204 2.27947 0)
(1.40934 2.29983 0)
(1.37635 2.31972 0)
(1.34309 2.33914 0)
(1.30955 2.35808 0)
(1.27575 2.37654 0)
(1.24168 2.39451 0)
(1.20736 2.412 0)
(1.1728 2.42899 0)
(1.13799 2.44549 0)
(1.10295 2.46149 0)
(1.06769 2.47699 0)
(1.03221 2.49199 0)
(0.996525 2.50647 0)
(0.960632 2.52045 0)
(0.924544 2.53391 0)
(0.888266 2.54685 0)
(0.851808 2.55927 0)
(0.815176 2.57118 0)
(0.778378 2.58255 0)
(0.741421 2.59341 0)
(0.704313 2.60373 0)
(0.667061 2.61352 0)
(0.629674 2.62278 0)
(0.592157 2.6315 0)
(0.554521 2.63969 0)
(0.516771 2.64734 0)
(0.478915 2.65445 0)
(0.440962 2.66102 0)
(0.402919 2.66704 0)
(0.364794 2.67252 0)
(0.326595 2.67746 0)
(0.288329 2.68185 0)
(0.250004 2.6857 0)
(0.211628 2.68899 0)
(0.173209 2.69174 0)
(0.134755 2.69394 0)
(0.0962731 2.69559 0)
(0.0577717 2.69669 0)
(0.0192586 2.69724 0)
(2.68093 0.0191421 0)
(2.68038 0.0574224 0)
(2.67929 0.095691 0)
(2.67765 0.13394 0)
(2.67546 0.172162 0)
(2.67273 0.210348 0)
(2.66945 0.248492 0)
(2.66563 0.286585 0)
(2.66127 0.32462 0)
(2.65636 0.362588 0)
(2.65091 0.400483 0)
(2.64493 0.438296 0)
(2.6384 0.476019 0)
(2.63133 0.513646 0)
(2.62373 0.551167 0)
(2.61559 0.588577 0)
(2.60692 0.625866 0)
(2.59772 0.663028 0)
(2.58798 0.700054 0)
(2.57772 0.736938 0)
(2.56694 0.773671 0)
(2.55563 0.810247 0)
(2.5438 0.846657 0)
(2.53145 0.882895 0)
(2.51858 0.918953 0)
(2.5052 0.954823 0)
(2.49131 0.990499 0)
(2.47692 1.02597 0)
(2.46201 1.06124 0)
(2.44661 1.09629 0)
(2.4307 1.13111 0)
(2.41431 1.1657 0)
(2.39741 1.20006 0)
(2.38003 1.23417 0)
(2.36217 1.26803 0)
(2.34382 1.30163 0)
(2.32499 1.33497 0)
(2.30569 1.36803 0)
(2.28592 1.40082 0)
(2.26569 1.43332 0)
(2.24499 1.46552 0)
(2.22383 1.49743 0)
(2.20223 1.52903 0)
(2.18017 1.56032 0)
(2.15766 1.5913 0)
(2.13472 1.62194 0)
(2.11134 1.65226 0)
(2.08753 1.68224 0)
(2.0633 1.71188 0)
(2.03864 1.74117 0)
(2.01357 1.7701 0)
(1.98809 1.79867 0)
(1.96221 1.82688 0)
(1.93592 1.85471 0)
(1.90924 1.88217 0)
(1.88217 1.90924 0)
(1.85471 1.93592 0)
(1.82688 1.96221 0)
(1.79867 1.98809 0)
(1.7701 2.01357 0)
(1.74117 2.03864 0)
(1.71188 2.0633 0)
(1.68224 2.08753 0)
(1.65226 2.11134 0)
(1.62194 2.13472 0)
(1.5913 2.15766 0)
(1.56032 2.18017 0)
(1.52903 2.20223 0)
(1.49743 2.22383 0)
(1.46552 2.24499 0)
(1.43332 2.26569 0)
(1.40082 2.28592 0)
(1.36803 2.30569 0)
(1.33497 2.32499 0)
(1.30163 2.34382 0)
(1.26803 2.36217 0)
(1.23417 2.38003 0)
(1.20006 2.39741 0)
(1.1657 2.41431 0)
(1.13111 2.4307 0)
(1.09629 2.44661 0)
(1.06124 2.46201 0)
(1.02597 2.47692 0)
(0.990499 2.49131 0)
(0.954823 2.5052 0)
(0.918953 2.51858 0)
(0.882895 2.53145 0)
(0.846657 2.5438 0)
(0.810247 2.55563 0)
(0.773671 2.56694 0)
(0.736938 2.57772 0)
(0.700054 2.58798 0)
(0.663028 2.59772 0)
(0.625866 2.60692 0)
(0.588577 2.61559 0)
(0.551167 2.62373 0)
(0.513646 2.63133 0)
(0.476019 2.6384 0)
(0.438296 2.64493 0)
(0.400483 2.65091 0)
(0.362588 2.65636 0)
(0.32462 2.66127 0)
(0.286585 2.66563 0)
(0.248492 2.66945 0)
(0.210348 2.67273 0)
(0.172162 2.67546 0)
(0.13394 2.67765 0)
(0.095691 2.67929 0)
(0.0574224 2.68038 0)
(0.0191421 2.68093 0)
(2.66485 0.0190273 0)
(2.66431 0.0570781 0)
(2.66322 0.0951173 0)
(2.66159 0.133137 0)
(2.65942 0.17113 0)
(2.65671 0.209087 0)
(2.65345 0.247002 0)
(2.64965 0.284867 0)
(2.64531 0.322674 0)
(2.64044 0.360415 0)
(2.63502 0.398082 0)
(2.62907 0.435668 0)
(2.62258 0.473165 0)
(2.61556 0.510566 0)
(2.608 0.547863 0)
(2.59991 0.585048 0)
(2.59129 0.622114 0)
(2.58214 0.659052 0)
(2.57247 0.695857 0)
(2.56227 0.732519 0)
(2.55155 0.769033 0)
(2.54031 0.805389 0)
(2.52855 0.841581 0)
(2.51627 0.877602 0)
(2.50348 0.913443 0)
(2.49018 0.949099 0)
(2.47638 0.98456 0)
(2.46207 1.01982 0)
(2.44725 1.05487 0)
(2.43194 1.08971 0)
(2.41613 1.12433 0)
(2.39983 1.15871 0)
(2.38304 1.19286 0)
(2.36576 1.22677 0)
(2.348 1.26043 0)
(2.32977 1.29383 0)
(2.31105 1.32696 0)
(2.29187 1.35983 0)
(2.27222 1.39242 0)
(2.2521 1.42472 0)
(2.23153 1.45674 0)
(2.2105 1.48845 0)
(2.18902 1.51987 0)
(2.1671 1.55097 0)
(2.14473 1.58176 0)
(2.12192 1.61222 0)
(2.09868 1.64236 0)
(2.07502 1.67216 0)
(2.05093 1.70162 0)
(2.02642 1.73073 0)
(2.0015 1.75949 0)
(1.97617 1.78789 0)
(1.95044 1.81593 0)
(1.92431 1.84359 0)
(1.89779 1.87088 0)
(1.87088 1.89779 0)
(1.84359 1.92431 0)
(1.81593 1.95044 0)
(1.78789 1.97617 0)
(1.75949 2.0015 0)
(1.73073 2.02642 0)
(1.70162 2.05093 0)
(1.67216 2.07502 0)
(1.64236 2.09868 0)
(1.61222 2.12192 0)
(1.58176 2.14473 0)
(1.55097 2.1671 0)
(1.51987 2.18902 0)
(1.48845 2.2105 0)
(1.45674 2.23153 0)
(1.42472 2.2521 0)
(1.39242 2.27222 0)
(1.35983 2.29187 0)
(1.32696 2.31105 0)
(1.29383 2.32977 0)
(1.26043 2.348 0)
(1.22677 2.36576 0)
(1.19286 2.38304 0)
(1.15871 2.39983 0)
(1.12433 2.41613 0)
(1.08971 2.43194 0)
(1.05487 2.44725 0)
(1.01982 2.46207 0)
(0.98456 2.47638 0)
(0.949099 2.49018 0)
(0.913443 2.50348 0)
(0.877602 2.51627 0)
(0.841581 2.52855 0)
(0.805389 2.54031 0)
(0.769033 2.55155 0)
(0.732519 2.56227 0)
(0.695857 2.57247 0)
(0.659052 2.58214 0)
(0.622114 2.59129 0)
(0.585048 2.59991 0)
(0.547863 2.608 0)
(0.510566 2.61556 0)
(0.473165 2.62258 0)
(0.435668 2.62907 0)
(0.398082 2.63502 0)
(0.360415 2.64044 0)
(0.322674 2.64531 0)
(0.284867 2.64965 0)
(0.247002 2.65345 0)
(0.209087 2.65671 0)
(0.17113 2.65942 0)
(0.133137 2.66159 0)
(0.0951173 2.66322 0)
(0.0570781 2.66431 0)
(0.0190273 2.66485 0)
(2.6492 0.0189156 0)
(2.64866 0.0567429 0)
(2.64758 0.0945587 0)
(2.64596 0.132355 0)
(2.6438 0.170125 0)
(2.6411 0.207859 0)
(2.63787 0.245552 0)
(2.63409 0.283194 0)
(2.62978 0.320779 0)
(2.62493 0.358298 0)
(2.61955 0.395744 0)
(2.61363 0.433109 0)
(2.60718 0.470387 0)
(2.60019 0.507568 0)
(2.59268 0.544645 0)
(2.58464 0.581612 0)
(2.57607 0.61846 0)
(2.56698 0.655182 0)
(2.55736 0.69177 0)
(2.54722 0.728217 0)
(2.53656 0.764516 0)
(2.52539 0.800659 0)
(2.5137 0.836639 0)
(2.50149 0.872448 0)
(2.48878 0.908079 0)
(2.47556 0.943525 0)
(2.46183 0.978778 0)
(2.44761 1.01383 0)
(2.43288 1.04868 0)
(2.41766 1.08331 0)
(2.40194 1.11773 0)
(2.38574 1.15191 0)
(2.36904 1.18586 0)
(2.35187 1.21957 0)
(2.33422 1.25303 0)
(2.31608 1.28623 0)
(2.29748 1.31917 0)
(2.27841 1.35184 0)
(2.25887 1.38424 0)
(2.23888 1.41635 0)
(2.21843 1.44818 0)
(2.19752 1.47971 0)
(2.17617 1.51094 0)
(2.15437 1.54186 0)
(2.13213 1.57247 0)
(2.10946 1.60275 0)
(2.08636 1.63271 0)
(2.06283 1.66234 0)
(2.03888 1.69162 0)
(2.01452 1.72056 0)
(1.98975 1.74915 0)
(1.96457 1.77739 0)
(1.93899 1.80526 0)
(1.91301 1.83276 0)
(1.88665 1.85989 0)
(1.85989 1.88665 0)
(1.83276 1.91301 0)
(1.80526 1.93899 0)
(1.77739 1.96457 0)
(1.74915 1.98975 0)
(1.72056 2.01452 0)
(1.69162 2.03888 0)
(1.66234 2.06283 0)
(1.63271 2.08636 0)
(1.60275 2.10946 0)
(1.57247 2.13213 0)
(1.54186 2.15437 0)
(1.51094 2.17617 0)
(1.47971 2.19752 0)
(1.44818 2.21843 0)
(1.41635 2.23888 0)
(1.38424 2.25887 0)
(1.35184 2.27841 0)
(1.31917 2.29748 0)
(1.28623 2.31608 0)
(1.25303 2.33422 0)
(1.21957 2.35187 0)
(1.18586 2.36904 0)
(1.15191 2.38574 0)
(1.11773 2.40194 0)
(1.08331 2.41766 0)
(1.04868 2.43288 0)
(1.01383 2.44761 0)
(0.978778 2.46183 0)
(0.943525 2.47556 0)
(0.908079 2.48878 0)
(0.872448 2.50149 0)
(0.836639 2.5137 0)
(0.800659 2.52539 0)
(0.764516 2.53656 0)
(0.728217 2.54722 0)
(0.69177 2.55736 0)
(0.655182 2.56698 0)
(0.61846 2.57607 0)
(0.581612 2.58464 0)
(0.544645 2.59268 0)
(0.507568 2.60019 0)
(0.470387 2.60718 0)
(0.433109 2.61363 0)
(0.395744 2.61955 0)
(0.358298 2.62493 0)
(0.320779 2.62978 0)
(0.283194 2.63409 0)
(0.245552 2.63787 0)
(0.207859 2.6411 0)
(0.170125 2.6438 0)
(0.132355 2.64596 0)
(0.0945587 2.64758 0)
(0.0567429 2.64866 0)
(0.0189156 2.6492 0)
(2.63386 0.018806 0)
(2.63332 0.0564143 0)
(2.63225 0.094011 0)
(2.63064 0.131589 0)
(2.62849 0.169139 0)
(2.62581 0.206656 0)
(2.62259 0.24413 0)
(2.61884 0.281554 0)
(2.61455 0.318921 0)
(2.60973 0.356223 0)
(2.60437 0.393452 0)
(2.59849 0.430601 0)
(2.59208 0.467662 0)
(2.58513 0.504628 0)
(2.57767 0.541491 0)
(2.56967 0.578243 0)
(2.56115 0.614878 0)
(2.55211 0.651387 0)
(2.54255 0.687764 0)
(2.53247 0.724 0)
(2.52187 0.760088 0)
(2.51076 0.796022 0)
(2.49914 0.831793 0)
(2.48701 0.867395 0)
(2.47437 0.902819 0)
(2.46122 0.93806 0)
(2.44758 0.973109 0)
(2.43343 1.00796 0)
(2.41879 1.04261 0)
(2.40366 1.07704 0)
(2.38803 1.11125 0)
(2.37192 1.14524 0)
(2.35532 1.17899 0)
(2.33825 1.2125 0)
(2.3207 1.24577 0)
(2.30267 1.27878 0)
(2.28418 1.31153 0)
(2.26521 1.34401 0)
(2.24579 1.37622 0)
(2.22591 1.40815 0)
(2.20558 1.43979 0)
(2.18479 1.47114 0)
(2.16356 1.50219 0)
(2.14189 1.53293 0)
(2.11978 1.56336 0)
(2.09724 1.59347 0)
(2.07428 1.62325 0)
(2.05089 1.65271 0)
(2.02708 1.68182 0)
(2.00285 1.7106 0)
(1.97822 1.73902 0)
(1.95319 1.76709 0)
(1.92776 1.79481 0)
(1.90193 1.82215 0)
(1.87572 1.84912 0)
(1.84912 1.87572 0)
(1.82215 1.90193 0)
(1.79481 1.92776 0)
(1.76709 1.95319 0)
(1.73902 1.97822 0)
(1.7106 2.00285 0)
(1.68182 2.02708 0)
(1.65271 2.05089 0)
(1.62325 2.07428 0)
(1.59347 2.09724 0)
(1.56336 2.11978 0)
(1.53293 2.14189 0)
(1.50219 2.16356 0)
(1.47114 2.18479 0)
(1.43979 2.20558 0)
(1.40815 2.22591 0)
(1.37622 2.24579 0)
(1.34401 2.26521 0)
(1.31153 2.28418 0)
(1.27878 2.30267 0)
(1.24577 2.3207 0)
(1.2125 2.33825 0)
(1.17899 2.35532 0)
(1.14524 2.37192 0)
(1.11125 2.38803 0)
(1.07704 2.40366 0)
(1.04261 2.41879 0)
(1.00796 2.43343 0)
(0.973109 2.44758 0)
(0.93806 2.46122 0)
(0.902819 2.47437 0)
(0.867395 2.48701 0)
(0.831793 2.49914 0)
(0.796022 2.51076 0)
(0.760088 2.52187 0)
(0.724 2.53247 0)
(0.687764 2.54255 0)
(0.651387 2.55211 0)
(0.614878 2.56115 0)
(0.578243 2.56967 0)
(0.541491 2.57767 0)
(0.504628 2.58513 0)
(0.467662 2.59208 0)
(0.430601 2.59849 0)
(0.393452 2.60437 0)
(0.356223 2.60973 0)
(0.318921 2.61455 0)
(0.281554 2.61884 0)
(0.24413 2.62259 0)
(0.206656 2.62581 0)
(0.169139 2.62849 0)
(0.131589 2.63064 0)
(0.094011 2.63225 0)
(0.0564143 2.63332 0)
(0.018806 2.63386 0)
(2.61888 0.0186991 0)
(2.61834 0.0560934 0)
(2.61728 0.0934763 0)
(2.61567 0.13084 0)
(2.61354 0.168177 0)
(2.61087 0.20548 0)
(2.60767 0.242741 0)
(2.60394 0.279952 0)
(2.59968 0.317107 0)
(2.59488 0.354197 0)
(2.58956 0.391214 0)
(2.58371 0.428152 0)
(2.57733 0.465002 0)
(2.57043 0.501758 0)
(2.563 0.538411 0)
(2.55505 0.574954 0)
(2.54658 0.611381 0)
(2.53759 0.647682 0)
(2.52809 0.683852 0)
(2.51806 0.719882 0)
(2.50753 0.755765 0)
(2.49648 0.791494 0)
(2.48492 0.827062 0)
(2.47286 0.862461 0)
(2.46029 0.897684 0)
(2.44722 0.932724 0)
(2.43365 0.967574 0)
(2.41959 1.00223 0)
(2.40503 1.03668 0)
(2.38998 1.07091 0)
(2.37445 1.10493 0)
(2.35843 1.13872 0)
(2.34193 1.17228 0)
(2.32495 1.20561 0)
(2.3075 1.23868 0)
(2.28957 1.27151 0)
(2.27118 1.30407 0)
(2.25233 1.33637 0)
(2.23302 1.3684 0)
(2.21325 1.40014 0)
(2.19303 1.4316 0)
(2.17236 1.46277 0)
(2.15126 1.49364 0)
(2.12971 1.52421 0)
(2.10773 1.55447 0)
(2.08531 1.5844 0)
(2.06248 1.61402 0)
(2.03922 1.64331 0)
(2.01555 1.67226 0)
(1.99146 1.70087 0)
(1.96697 1.72913 0)
(1.94208 1.75704 0)
(1.91679 1.7846 0)
(1.89111 1.81178 0)
(1.86505 1.8386 0)
(1.8386 1.86505 0)
(1.81178 1.89111 0)
(1.7846 1.91679 0)
(1.75704 1.94208 0)
(1.72913 1.96697 0)
(1.70087 1.99146 0)
(1.67226 2.01555 0)
(1.64331 2.03922 0)
(1.61402 2.06248 0)
(1.5844 2.08531 0)
(1.55447 2.10773 0)
(1.52421 2.12971 0)
(1.49364 2.15126 0)
(1.46277 2.17236 0)
(1.4316 2.19303 0)
(1.40014 2.21325 0)
(1.3684 2.23302 0)
(1.33637 2.25233 0)
(1.30407 2.27118 0)
(1.27151 2.28957 0)
(1.23868 2.3075 0)
(1.20561 2.32495 0)
(1.17228 2.34193 0)
(1.13872 2.35843 0)
(1.10493 2.37445 0)
(1.07091 2.38998 0)
(1.03668 2.40503 0)
(1.00223 2.41959 0)
(0.967574 2.43365 0)
(0.932724 2.44722 0)
(0.897684 2.46029 0)
(0.862461 2.47286 0)
(0.827062 2.48492 0)
(0.791494 2.49648 0)
(0.755765 2.50753 0)
(0.719882 2.51806 0)
(0.683852 2.52809 0)
(0.647682 2.53759 0)
(0.611381 2.54658 0)
(0.574954 2.55505 0)
(0.538411 2.563 0)
(0.501758 2.57043 0)
(0.465002 2.57733 0)
(0.428152 2.58371 0)
(0.391214 2.58956 0)
(0.354197 2.59488 0)
(0.317107 2.59968 0)
(0.279952 2.60394 0)
(0.242741 2.60767 0)
(0.20548 2.61087 0)
(0.168177 2.61354 0)
(0.13084 2.61567 0)
(0.0934763 2.61728 0)
(0.0560934 2.61834 0)
(0.0186991 2.61888 0)
(2.60422 0.0185944 0)
(2.60369 0.0557794 0)
(2.60262 0.092953 0)
(2.60103 0.130108 0)
(2.59891 0.167236 0)
(2.59626 0.20433 0)
(2.59307 0.241382 0)
(2.58936 0.278385 0)
(2.58512 0.315332 0)
(2.58036 0.352214 0)
(2.57506 0.389024 0)
(2.56925 0.425755 0)
(2.5629 0.462399 0)
(2.55604 0.498949 0)
(2.54866 0.535397 0)
(2.54075 0.571736 0)
(2.53233 0.607958 0)
(2.52339 0.644056 0)
(2.51393 0.680023 0)
(2.50397 0.715852 0)
(2.49349 0.751534 0)
(2.4825 0.787063 0)
(2.47101 0.822432 0)
(2.45902 0.857633 0)
(2.44652 0.892659 0)
(2.43352 0.927503 0)
(2.42003 0.962157 0)
(2.40604 0.996616 0)
(2.39157 1.03087 0)
(2.3766 1.06492 0)
(2.36115 1.09874 0)
(2.34522 1.13235 0)
(2.32882 1.16572 0)
(2.31193 1.19886 0)
(2.29458 1.23175 0)
(2.27676 1.26439 0)
(2.25847 1.29677 0)
(2.23972 1.32889 0)
(2.22052 1.36073 0)
(2.20086 1.3923 0)
(2.18075 1.42359 0)
(2.1602 1.45458 0)
(2.13921 1.48528 0)
(2.11779 1.51568 0)
(2.09593 1.54576 0)
(2.07364 1.57553 0)
(2.05093 1.60498 0)
(2.0278 1.63411 0)
(2.00426 1.6629 0)
(1.98031 1.69135 0)
(1.95596 1.71945 0)
(1.93121 1.74721 0)
(1.90606 1.77461 0)
(1.88053 1.80164 0)
(1.85461 1.82831 0)
(1.82831 1.85461 0)
(1.80164 1.88053 0)
(1.77461 1.90606 0)
(1.74721 1.93121 0)
(1.71945 1.95596 0)
(1.69135 1.98031 0)
(1.6629 2.00426 0)
(1.63411 2.0278 0)
(1.60498 2.05093 0)
(1.57553 2.07364 0)
(1.54576 2.09593 0)
(1.51568 2.11779 0)
(1.48528 2.13921 0)
(1.45458 2.1602 0)
(1.42359 2.18075 0)
(1.3923 2.20086 0)
(1.36073 2.22052 0)
(1.32889 2.23972 0)
(1.29677 2.25847 0)
(1.26439 2.27676 0)
(1.23175 2.29458 0)
(1.19886 2.31193 0)
(1.16572 2.32882 0)
(1.13235 2.34522 0)
(1.09874 2.36115 0)
(1.06492 2.3766 0)
(1.03087 2.39157 0)
(0.996616 2.40604 0)
(0.962157 2.42003 0)
(0.927503 2.43352 0)
(0.892659 2.44652 0)
(0.857633 2.45902 0)
(0.822432 2.47101 0)
(0.787063 2.4825 0)
(0.751534 2.49349 0)
(0.715852 2.50397 0)
(0.680023 2.51393 0)
(0.644056 2.52339 0)
(0.607958 2.53233 0)
(0.571736 2.54075 0)
(0.535397 2.54866 0)
(0.498949 2.55604 0)
(0.462399 2.5629 0)
(0.425755 2.56925 0)
(0.389024 2.57506 0)
(0.352214 2.58036 0)
(0.315332 2.58512 0)
(0.278385 2.58936 0)
(0.241382 2.59307 0)
(0.20433 2.59626 0)
(0.167236 2.59891 0)
(0.130108 2.60103 0)
(0.092953 2.60262 0)
(0.0557794 2.60369 0)
(0.0185944 2.60422 0)
(2.58989 0.0184921 0)
(2.58936 0.0554725 0)
(2.58831 0.0924415 0)
(2.58672 0.129392 0)
(2.58461 0.166316 0)
(2.58197 0.203206 0)
(2.57881 0.240054 0)
(2.57512 0.276854 0)
(2.5709 0.313597 0)
(2.56616 0.350276 0)
(2.5609 0.386884 0)
(2.55511 0.423412 0)
(2.5488 0.459855 0)
(2.54198 0.496204 0)
(2.53463 0.532451 0)
(2.52677 0.56859 0)
(2.51839 0.604613 0)
(2.5095 0.640513 0)
(2.5001 0.676282 0)
(2.49019 0.711913 0)
(2.47977 0.747399 0)
(2.46885 0.782733 0)
(2.45742 0.817907 0)
(2.44549 0.852914 0)
(2.43306 0.887747 0)
(2.42013 0.9224 0)
(2.40672 0.956864 0)
(2.39281 0.991133 0)
(2.37841 1.0252 0)
(2.36353 1.05906 0)
(2.34816 1.0927 0)
(2.33232 1.12612 0)
(2.316 1.15931 0)
(2.29921 1.19226 0)
(2.28195 1.22497 0)
(2.26423 1.25743 0)
(2.24604 1.28964 0)
(2.2274 1.32158 0)
(2.2083 1.35325 0)
(2.18875 1.38464 0)
(2.16876 1.41576 0)
(2.14832 1.44658 0)
(2.12744 1.47711 0)
(2.10613 1.50734 0)
(2.0844 1.53726 0)
(2.06223 1.56687 0)
(2.03965 1.59615 0)
(2.01665 1.62512 0)
(1.99324 1.65375 0)
(1.96942 1.68204 0)
(1.9452 1.70999 0)
(1.92058 1.73759 0)
(1.89557 1.76484 0)
(1.87018 1.79173 0)
(1.8444 1.81825 0)
(1.81825 1.8444 0)
(1.79173 1.87018 0)
(1.76484 1.89557 0)
(1.73759 1.92058 0)
(1.70999 1.9452 0)
(1.68204 1.96942 0)
(1.65375 1.99324 0)
(1.62512 2.01665 0)
(1.59615 2.03965 0)
(1.56687 2.06223 0)
(1.53726 2.0844 0)
(1.50734 2.10613 0)
(1.47711 2.12744 0)
(1.44658 2.14832 0)
(1.41576 2.16876 0)
(1.38464 2.18875 0)
(1.35325 2.2083 0)
(1.32158 2.2274 0)
(1.28964 2.24604 0)
(1.25743 2.26423 0)
(1.22497 2.28195 0)
(1.19226 2.29921 0)
(1.15931 2.316 0)
(1.12612 2.33232 0)
(1.0927 2.34816 0)
(1.05906 2.36353 0)
(1.0252 2.37841 0)
(0.991133 2.39281 0)
(0.956864 2.40672 0)
(0.9224 2.42013 0)
(0.887747 2.43306 0)
(0.852914 2.44549 0)
(0.817907 2.45742 0)
(0.782733 2.46885 0)
(0.747399 2.47977 0)
(0.711913 2.49019 0)
(0.676282 2.5001 0)
(0.640513 2.5095 0)
(0.604613 2.51839 0)
(0.56859 2.52677 0)
(0.532451 2.53463 0)
(0.496204 2.54198 0)
(0.459855 2.5488 0)
(0.423412 2.55511 0)
(0.386884 2.5609 0)
(0.350276 2.56616 0)
(0.313597 2.5709 0)
(0.276854 2.57512 0)
(0.240054 2.57881 0)
(0.203206 2.58197 0)
(0.166316 2.58461 0)
(0.129392 2.58672 0)
(0.0924416 2.58831 0)
(0.0554725 2.58936 0)
(0.0184921 2.58989 0)
(2.57588 0.018392 0)
(2.57535 0.0551724 0)
(2.5743 0.0919414 0)
(2.57273 0.128692 0)
(2.57063 0.165416 0)
(2.568 0.202106 0)
(2.56485 0.238755 0)
(2.56118 0.275356 0)
(2.55699 0.3119 0)
(2.55228 0.348381 0)
(2.54704 0.38479 0)
(2.54129 0.421122 0)
(2.53501 0.457367 0)
(2.52823 0.493519 0)
(2.52092 0.52957 0)
(2.5131 0.565514 0)
(2.50477 0.601342 0)
(2.49593 0.637048 0)
(2.48658 0.672623 0)
(2.47672 0.708062 0)
(2.46635 0.743356 0)
(2.45549 0.778498 0)
(2.44412 0.813482 0)
(2.43226 0.8483 0)
(2.4199 0.882945 0)
(2.40704 0.917409 0)
(2.39369 0.951687 0)
(2.37986 0.985771 0)
(2.36554 1.01965 0)
(2.35074 1.05333 0)
(2.33546 1.08679 0)
(2.3197 1.12003 0)
(2.30347 1.15304 0)
(2.28677 1.18581 0)
(2.26961 1.21834 0)
(2.25198 1.25063 0)
(2.23389 1.28266 0)
(2.21535 1.31443 0)
(2.19635 1.34593 0)
(2.17691 1.37715 0)
(2.15702 1.4081 0)
(2.1367 1.43875 0)
(2.11593 1.46912 0)
(2.09474 1.49918 0)
(2.07312 1.52894 0)
(2.05107 1.55839 0)
(2.02861 1.58752 0)
(2.00574 1.61632 0)
(1.98245 1.6448 0)
(1.95876 1.67294 0)
(1.93467 1.70074 0)
(1.91019 1.72819 0)
(1.88532 1.75529 0)
(1.86006 1.78204 0)
(1.83443 1.80842 0)
(1.80842 1.83443 0)
(1.78204 1.86006 0)
(1.75529 1.88532 0)
(1.72819 1.91019 0)
(1.70074 1.93467 0)
(1.67294 1.95876 0)
(1.6448 1.98245 0)
(1.61632 2.00574 0)
(1.58752 2.02861 0)
(1.55839 2.05107 0)
(1.52894 2.07312 0)
(1.49918 2.09474 0)
(1.46912 2.11593 0)
(1.43875 2.1367 0)
(1.4081 2.15702 0)
(1.37715 2.17691 0)
(1.34593 2.19635 0)
(1.31443 2.21535 0)
(1.28266 2.23389 0)
(1.25063 2.25198 0)
(1.21834 2.26961 0)
(1.18581 2.28677 0)
(1.15304 2.30347 0)
(1.12003 2.3197 0)
(1.08679 2.33546 0)
(1.05333 2.35074 0)
(1.01965 2.36554 0)
(0.985771 2.37986 0)
(0.951687 2.39369 0)
(0.917409 2.40704 0)
(0.882945 2.4199 0)
(0.8483 2.43226 0)
(0.813482 2.44412 0)
(0.778498 2.45549 0)
(0.743356 2.46635 0)
(0.708062 2.47672 0)
(0.672623 2.48658 0)
(0.637048 2.49593 0)
(0.601342 2.50477 0)
(0.565514 2.5131 0)
(0.52957 2.52092 0)
(0.493519 2.52823 0)
(0.457367 2.53501 0)
(0.421122 2.54129 0)
(0.38479 2.54704 0)
(0.348381 2.55228 0)
(0.3119 2.55699 0)
(0.275356 2.56118 0)
(0.238755 2.56485 0)
(0.202106 2.568 0)
(0.165416 2.57063 0)
(0.128692 2.57273 0)
(0.0919414 2.5743 0)
(0.0551724 2.57535 0)
(0.018392 2.57588 0)
(2.56218 0.0182942 0)
(2.56166 0.054879 0)
(2.56061 0.0914526 0)
(2.55905 0.128008 0)
(2.55696 0.164536 0)
(2.55435 0.201032 0)
(2.55122 0.237486 0)
(2.54757 0.273892 0)
(2.5434 0.310242 0)
(2.53871 0.346528 0)
(2.5335 0.382745 0)
(2.52778 0.418883 0)
(2.52154 0.454935 0)
(2.51478 0.490895 0)
(2.50752 0.526755 0)
(2.49974 0.562507 0)
(2.49145 0.598145 0)
(2.48266 0.63366 0)
(2.47336 0.669047 0)
(2.46355 0.704297 0)
(2.45324 0.739403 0)
(2.44243 0.774359 0)
(2.43113 0.809157 0)
(2.41932 0.843789 0)
(2.40703 0.87825 0)
(2.39424 0.912532 0)
(2.38097 0.946627 0)
(2.36721 0.98053 0)
(2.35297 1.01423 0)
(2.33824 1.04773 0)
(2.32304 1.08101 0)
(2.30737 1.11407 0)
(2.29123 1.14691 0)
(2.27462 1.17951 0)
(2.25754 1.21187 0)
(2.24001 1.24398 0)
(2.22201 1.27584 0)
(2.20357 1.30744 0)
(2.18467 1.33877 0)
(2.16534 1.36983 0)
(2.14555 1.40061 0)
(2.12534 1.4311 0)
(2.10468 1.46131 0)
(2.0836 1.49121 0)
(2.0621 1.52081 0)
(2.04017 1.5501 0)
(2.01783 1.57908 0)
(1.99507 1.60773 0)
(1.97191 1.63606 0)
(1.94835 1.66405 0)
(1.92439 1.6917 0)
(1.90004 1.71901 0)
(1.87529 1.74596 0)
(1.85017 1.77256 0)
(1.82467 1.7988 0)
(1.7988 1.82467 0)
(1.77256 1.85017 0)
(1.74596 1.87529 0)
(1.71901 1.90004 0)
(1.6917 1.92439 0)
(1.66405 1.94835 0)
(1.63606 1.97191 0)
(1.60773 1.99507 0)
(1.57908 2.01783 0)
(1.5501 2.04017 0)
(1.52081 2.0621 0)
(1.49121 2.0836 0)
(1.46131 2.10468 0)
(1.4311 2.12534 0)
(1.40061 2.14555 0)
(1.36983 2.16534 0)
(1.33877 2.18467 0)
(1.30744 2.20357 0)
(1.27584 2.22201 0)
(1.24398 2.24001 0)
(1.21187 2.25754 0)
(1.17951 2.27462 0)
(1.14691 2.29123 0)
(1.11407 2.30737 0)
(1.08101 2.32304 0)
(1.04773 2.33824 0)
(1.01423 2.35297 0)
(0.98053 2.36721 0)
(0.946627 2.38097 0)
(0.912532 2.39424 0)
(0.87825 2.40703 0)
(0.843789 2.41932 0)
(0.809157 2.43113 0)
(0.774359 2.44243 0)
(0.739403 2.45324 0)
(0.704297 2.46355 0)
(0.669047 2.47336 0)
(0.63366 2.48266 0)
(0.598145 2.49145 0)
(0.562507 2.49974 0)
(0.526755 2.50752 0)
(0.490895 2.51478 0)
(0.454935 2.52154 0)
(0.418883 2.52778 0)
(0.382745 2.5335 0)
(0.346528 2.53871 0)
(0.310242 2.5434 0)
(0.273892 2.54757 0)
(0.237486 2.55122 0)
(0.201032 2.55435 0)
(0.164536 2.55696 0)
(0.128008 2.55905 0)
(0.0914526 2.56061 0)
(0.054879 2.56166 0)
(0.0182942 2.56218 0)
(2.54879 0.0181986 0)
(2.54827 0.0545922 0)
(2.54723 0.0909747 0)
(2.54567 0.127339 0)
(2.5436 0.163677 0)
(2.541 0.199981 0)
(2.53789 0.236245 0)
(2.53425 0.27246 0)
(2.5301 0.308621 0)
(2.52544 0.344718 0)
(2.52026 0.380744 0)
(2.51457 0.416694 0)
(2.50836 0.452558 0)
(2.50164 0.48833 0)
(2.49441 0.524002 0)
(2.48668 0.559568 0)
(2.47843 0.595019 0)
(2.46968 0.630349 0)
(2.46043 0.665551 0)
(2.45068 0.700616 0)
(2.44042 0.735539 0)
(2.42967 0.770312 0)
(2.41842 0.804928 0)
(2.40668 0.83938 0)
(2.39445 0.873661 0)
(2.38173 0.907763 0)
(2.36853 0.94168 0)
(2.35484 0.975406 0)
(2.34067 1.00893 0)
(2.32602 1.04225 0)
(2.3109 1.07536 0)
(2.29531 1.10825 0)
(2.27925 1.14091 0)
(2.26273 1.17334 0)
(2.24574 1.20553 0)
(2.2283 1.23748 0)
(2.2104 1.26917 0)
(2.19205 1.30061 0)
(2.17326 1.33177 0)
(2.15402 1.36267 0)
(2.13434 1.39329 0)
(2.11423 1.42363 0)
(2.09368 1.45367 0)
(2.07271 1.48342 0)
(2.05132 1.51287 0)
(2.02951 1.542 0)
(2.00728 1.57083 0)
(1.98465 1.59933 0)
(1.96161 1.62751 0)
(1.93817 1.65535 0)
(1.91433 1.68286 0)
(1.89011 1.71002 0)
(1.8655 1.73684 0)
(1.8405 1.7633 0)
(1.81514 1.7894 0)
(1.7894 1.81514 0)
(1.7633 1.8405 0)
(1.73684 1.8655 0)
(1.71002 1.89011 0)
(1.68286 1.91433 0)
(1.65535 1.93817 0)
(1.62751 1.96161 0)
(1.59933 1.98465 0)
(1.57083 2.00728 0)
(1.542 2.02951 0)
(1.51287 2.05132 0)
(1.48342 2.07271 0)
(1.45367 2.09368 0)
(1.42363 2.11423 0)
(1.39329 2.13434 0)
(1.36267 2.15402 0)
(1.33177 2.17326 0)
(1.30061 2.19205 0)
(1.26917 2.2104 0)
(1.23748 2.2283 0)
(1.20553 2.24574 0)
(1.17334 2.26273 0)
(1.14091 2.27925 0)
(1.10825 2.29531 0)
(1.07536 2.3109 0)
(1.04225 2.32602 0)
(1.00893 2.34067 0)
(0.975406 2.35484 0)
(0.94168 2.36853 0)
(0.907763 2.38173 0)
(0.873661 2.39445 0)
(0.83938 2.40668 0)
(0.804928 2.41842 0)
(0.770312 2.42967 0)
(0.735539 2.44042 0)
(0.700616 2.45068 0)
(0.665551 2.46043 0)
(0.630349 2.46968 0)
(0.595019 2.47843 0)
(0.559568 2.48668 0)
(0.524002 2.49441 0)
(0.48833 2.50164 0)
(0.452558 2.50836 0)
(0.416694 2.51457 0)
(0.380744 2.52026 0)
(0.344718 2.52544 0)
(0.308621 2.5301 0)
(0.27246 2.53425 0)
(0.236245 2.53789 0)
(0.199981 2.541 0)
(0.163677 2.5436 0)
(0.127339 2.54567 0)
(0.0909747 2.54723 0)
(0.0545922 2.54827 0)
(0.0181986 2.54879 0)
(2.53571 0.0181052 0)
(2.53519 0.0543119 0)
(2.53415 0.0905076 0)
(2.5326 0.126685 0)
(2.53054 0.162836 0)
(2.52795 0.198954 0)
(2.52485 0.235032 0)
(2.52124 0.271061 0)
(2.51711 0.307036 0)
(2.51247 0.342948 0)
(2.50732 0.378789 0)
(2.50165 0.414554 0)
(2.49548 0.450234 0)
(2.4888 0.485822 0)
(2.48161 0.521312 0)
(2.47391 0.556694 0)
(2.46571 0.591964 0)
(2.457 0.627113 0)
(2.4478 0.662133 0)
(2.43809 0.697019 0)
(2.42789 0.731763 0)
(2.41719 0.766357 0)
(2.406 0.800795 0)
(2.39432 0.83507 0)
(2.38216 0.869175 0)
(2.3695 0.903102 0)
(2.35636 0.936845 0)
(2.34275 0.970397 0)
(2.32865 1.00375 0)
(2.31408 1.0369 0)
(2.29904 1.06984 0)
(2.28353 1.10256 0)
(2.26755 1.13505 0)
(2.25111 1.16732 0)
(2.23421 1.19934 0)
(2.21686 1.23113 0)
(2.19905 1.26266 0)
(2.1808 1.29393 0)
(2.1621 1.32494 0)
(2.14296 1.35568 0)
(2.12338 1.38614 0)
(2.10337 1.41632 0)
(2.08293 1.44621 0)
(2.06207 1.4758 0)
(2.04079 1.5051 0)
(2.01909 1.53409 0)
(1.99698 1.56276 0)
(1.97446 1.59112 0)
(1.95153 1.61915 0)
(1.92822 1.64685 0)
(1.9045 1.67422 0)
(1.8804 1.70124 0)
(1.85592 1.72792 0)
(1.83105 1.75424 0)
(1.80582 1.78021 0)
(1.78021 1.80582 0)
(1.75424 1.83105 0)
(1.72792 1.85592 0)
(1.70124 1.8804 0)
(1.67422 1.9045 0)
(1.64685 1.92822 0)
(1.61915 1.95153 0)
(1.59112 1.97446 0)
(1.56276 1.99698 0)
(1.53409 2.01909 0)
(1.5051 2.04079 0)
(1.4758 2.06207 0)
(1.44621 2.08293 0)
(1.41632 2.10337 0)
(1.38614 2.12338 0)
(1.35568 2.14296 0)
(1.32494 2.1621 0)
(1.29393 2.1808 0)
(1.26266 2.19905 0)
(1.23113 2.21686 0)
(1.19934 2.23421 0)
(1.16732 2.25111 0)
(1.13505 2.26755 0)
(1.10256 2.28353 0)
(1.06984 2.29904 0)
(1.0369 2.31408 0)
(1.00375 2.32865 0)
(0.970397 2.34275 0)
(0.936845 2.35636 0)
(0.903102 2.3695 0)
(0.869175 2.38216 0)
(0.83507 2.39432 0)
(0.800795 2.406 0)
(0.766357 2.41719 0)
(0.731763 2.42789 0)
(0.697019 2.43809 0)
(0.662133 2.4478 0)
(0.627113 2.457 0)
(0.591964 2.46571 0)
(0.556695 2.47391 0)
(0.521312 2.48161 0)
(0.485822 2.4888 0)
(0.450234 2.49548 0)
(0.414554 2.50165 0)
(0.378789 2.50732 0)
(0.342948 2.51247 0)
(0.307036 2.51711 0)
(0.271061 2.52124 0)
(0.235032 2.52485 0)
(0.198954 2.52795 0)
(0.162836 2.53054 0)
(0.126685 2.5326 0)
(0.0905076 2.53415 0)
(0.0543119 2.53519 0)
(0.0181052 2.53571 0)
(2.52291 0.0180139 0)