/*--------------------------------*- C++ -*----------------------------------*\
| =========                 |                                                 |
| \\      /  F ield         | OpenFOAM: The Open Source CFD Toolbox           |
|  \\    /   O peration     | Version:  2312                                  |
|   \\  /    A nd           | Website:  www.openfoam.com                      |
|    \\/     M anipulation  |                                                 |
\*---------------------------------------------------------------------------*/
FoamFile
{
    version     2.0;
    format      ascii;
    arch        "LSB;label=32;scalar=64";
    class       volTensorField;
    location    "70";
    object      F;
}
// * * * * * * * * * * * * * * * * * * * * * * * * * * * * * * * * * * * * * //

dimensions      [0 0 0 0 0 0 0];

internalField   nonuniform List<tensor> 
12870
(
(0.830043 -0.00396255 8.41158e-20 -0.00396255 1.38499 -2.10942e-17 0 0 1)
(0.830269 -0.0118844 -9.66323e-18 -0.0118844 1.38476 1.03425e-17 0 0 1)
(0.830722 -0.0197966 1.35136e-17 -0.0197966 1.38431 2.15903e-17 0 0 1)
(0.8314 -0.0276926 5.60131e-19 -0.0276926 1.38363 -1.05323e-17 0 0 1)
(0.832303 -0.0355661 -5.43706e-18 -0.0355661 1.38273 1.02191e-17 0 0 1)
(0.833431 -0.0434105 1.42979e-17 -0.0434105 1.3816 1.12527e-18 0 0 1)
(0.834783 -0.0512195 -3.77151e-18 -0.0512195 1.38025 -1.09438e-17 0 0 1)
(0.836357 -0.0589868 8.45632e-18 -0.0589868 1.37867 1.1517e-17 0 0 1)
(0.838152 -0.0667059 -2.55413e-18 -0.0667059 1.37688 2.0939e-17 0 0 1)
(0.840166 -0.0743706 8.05811e-18 -0.0743706 1.37486 1.17448e-17 0 0 1)
(0.842399 -0.0819747 1.10406e-17 -0.0819747 1.37263 -8.99885e-18 0 0 1)
(0.844848 -0.0895119 1.15697e-17 -0.0895119 1.37018 -4.08466e-17 0 0 1)
(0.847511 -0.0969761 -1.87099e-17 -0.0969761 1.36752 -3.37564e-18 0 0 1)
(0.850387 -0.104361 -4.90969e-18 -0.104361 1.36464 -9.5839e-19 0 0 1)
(0.853472 -0.111661 -7.06955e-18 -0.111661 1.36156 -1.22624e-17 0 0 1)
(0.856764 -0.11887 -1.63503e-17 -0.11887 1.35826 2.87533e-17 0 0 1)
(0.86026 -0.125982 -2.49451e-18 -0.125982 1.35477 1.02479e-17 0 0 1)
(0.863959 -0.132991 4.65368e-18 -0.132991 1.35107 1.18778e-18 0 0 1)
(0.867856 -0.139892 7.35818e-18 -0.139892 1.34717 -8.93578e-18 0 0 1)
(0.871948 -0.146679 2.9311e-18 -0.146679 1.34308 -1.01317e-17 0 0 1)
(0.876233 -0.153346 0 -0.153346 1.3388 0 0 0 1)
(0.880706 -0.159888 -7.73412e-18 -0.159888 1.33432 8.61245e-18 0 0 1)
(0.885365 -0.166299 -6.66155e-18 -0.166299 1.32966 2.00148e-17 0 0 1)
(0.890204 -0.172575 7.91412e-18 -0.172575 1.32482 -8.40998e-18 0 0 1)
(0.895221 -0.17871 2.78093e-18 -0.17871 1.31981 -2.14398e-17 0 0 1)
(0.900411 -0.1847 1.52543e-18 -0.1847 1.31462 2.31558e-17 0 0 1)
(0.905769 -0.190538 1.65341e-17 -0.190538 1.30926 -1.61267e-17 0 0 1)
(0.911293 -0.196222 -6.17825e-19 -0.196222 1.30374 -2.30881e-17 0 0 1)
(0.916976 -0.201745 -4.53271e-18 -0.201745 1.29805 -1.9538e-18 0 0 1)
(0.922815 -0.207104 -2.15925e-17 -0.207104 1.29221 1.34398e-17 0 0 1)
(0.928804 -0.212294 -9.21088e-18 -0.212294 1.28622 4.22464e-17 0 0 1)
(0.934939 -0.21731 9.11194e-18 -0.21731 1.28009 -1.90248e-17 0 0 1)
(0.941215 -0.22215 5.15419e-19 -0.22215 1.27381 -1.15367e-17 0 0 1)
(0.947627 -0.226808 -9.14849e-18 -0.226808 1.2674 7.13686e-18 0 0 1)
(0.954169 -0.231281 9.19088e-18 -0.231281 1.26086 -7.03695e-18 0 0 1)
(0.960836 -0.235566 9.50892e-19 -0.235566 1.25419 -1.15363e-17 0 0 1)
(0.967622 -0.239658 1.04459e-17 -0.239658 1.24741 -1.83263e-17 0 0 1)
(0.974523 -0.243556 2.55987e-18 -0.243556 1.24051 -2.30089e-17 0 0 1)
(0.981532 -0.247254 -2.73455e-17 -0.247254 1.2335 7.98257e-18 0 0 1)
(0.988644 -0.250751 -3.06726e-17 -0.250751 1.22638 3.05177e-17 0 0 1)
(0.995853 -0.254043 7.93221e-18 -0.254043 1.21918 5.17812e-18 0 0 1)
(1.00315 -0.257128 1.10316e-19 -0.257128 1.21188 7.42819e-20 0 0 1)
(1.01054 -0.260003 -4.19479e-18 -0.260003 1.20449 2.27677e-17 0 0 1)
(1.018 -0.262666 1.22226e-17 -0.262666 1.19703 -1.71924e-17 0 0 1)
(1.02554 -0.265115 -3.75831e-18 -0.265115 1.18949 -2.77179e-18 0 0 1)
(1.03314 -0.267348 -5.16601e-18 -0.267348 1.18189 2.25671e-17 0 0 1)
(1.04081 -0.269363 0 -0.269363 1.17422 0 0 0 1)
(1.04853 -0.271158 1.69239e-17 -0.271158 1.1665 -1.34529e-17 0 0 1)
(1.05629 -0.272732 2.69383e-17 -0.272732 1.15873 -3.24683e-17 0 0 1)
(1.0641 -0.274083 2.79378e-18 -0.274083 1.15092 -2.53546e-17 0 0 1)
(1.07195 -0.275211 -1.08216e-17 -0.275211 1.14308 -9.51314e-18 0 0 1)
(1.07982 -0.276114 -3.18388e-17 -0.276114 1.13521 1.38639e-17 0 0 1)
(1.08772 -0.276792 -1.09561e-17 -0.276792 1.12731 1.86209e-17 0 0 1)
(1.09563 -0.277245 -6.88819e-18 -0.277245 1.1194 -6.59924e-18 0 0 1)
(1.10355 -0.277471 -1.82293e-17 -0.277471 1.11148 1.16502e-17 0 0 1)
(1.11148 -0.277471 2.09282e-17 -0.277471 1.10355 6.20568e-18 0 0 1)
(1.1194 -0.277245 9.20054e-20 -0.277245 1.09563 9.60338e-20 0 0 1)
(1.12731 -0.276792 1.53028e-17 -0.276792 1.08772 -1.452e-17 0 0 1)
(1.13521 -0.276114 -9.48824e-18 -0.276114 1.07982 -1.04875e-17 0 0 1)
(1.14308 -0.275211 -9.63254e-18 -0.275211 1.07195 2.09919e-17 0 0 1)
(1.15092 -0.274083 -1.10313e-17 -0.274083 1.0641 3.32409e-18 0 0 1)
(1.15873 -0.272732 1.91311e-17 -0.272732 1.05629 -9.97757e-18 0 0 1)
(1.1665 -0.271158 -6.40769e-19 -0.271158 1.04853 -1.76041e-17 0 0 1)
(1.17422 -0.269363 -1.91008e-17 -0.269363 1.04081 2.69339e-17 0 0 1)
(1.18189 -0.267348 2.94586e-18 -0.267348 1.03314 3.87719e-18 0 0 1)
(1.18949 -0.265115 -3.94692e-20 -0.265115 1.02554 -5.35168e-20 0 0 1)
(1.19703 -0.262666 1.13914e-17 -0.262666 1.018 -2.20566e-18 0 0 1)
(1.20449 -0.260003 5.90547e-18 -0.260003 1.01054 -9.98775e-18 0 0 1)
(1.21188 -0.257128 2.62273e-17 -0.257128 1.00315 -1.77004e-17 0 0 1)
(1.21918 -0.254043 -2.80563e-17 -0.254043 0.995853 -4.38929e-18 0 0 1)
(1.22638 -0.250751 -1.53655e-17 -0.250751 0.988644 1.51677e-17 0 0 1)
(1.2335 -0.247254 1.80205e-17 -0.247254 0.981532 -1.0965e-17 0 0 1)
(1.24051 -0.243556 -1.32059e-17 -0.243556 0.974523 1.9082e-17 0 0 1)
(1.24741 -0.239658 -9.19626e-18 -0.239658 0.967622 5.1653e-18 0 0 1)
(1.25419 -0.235566 1.84413e-17 -0.235566 0.960836 -1.02413e-17 0 0 1)
(1.26086 -0.231281 7.03695e-18 -0.231281 0.954169 -9.19088e-18 0 0 1)
(1.2674 -0.226808 -2.21096e-18 -0.226808 0.947627 -4.26371e-18 0 0 1)
(1.27381 -0.22215 -9.41661e-18 -0.22215 0.941215 4.7508e-18 0 0 1)
(1.28009 -0.21731 6.23598e-18 -0.21731 0.934939 1.29154e-17 0 0 1)
(1.28622 -0.212294 2.80551e-20 -0.212294 0.928804 6.02891e-20 0 0 1)
(1.29221 -0.207104 2.11596e-17 -0.207104 0.922815 -4.36403e-18 0 0 1)
(1.29805 -0.201745 -2.30683e-17 -0.201745 0.916976 -2.27009e-19 0 0 1)
(1.30374 -0.196222 5.3867e-18 -0.196222 0.911293 1.30046e-17 0 0 1)
(1.30926 -0.190538 2.41654e-17 -0.190538 0.905769 -2.48629e-17 0 0 1)
(1.31462 -0.1847 -1.97348e-17 -0.1847 0.900411 7.45047e-18 0 0 1)
(1.31981 -0.17871 -9.89678e-18 -0.17871 0.895221 3.64642e-18 0 0 1)
(1.32482 -0.172575 -1.83359e-17 -0.172575 0.890204 1.14816e-17 0 0 1)
(1.32966 -0.166299 3.14864e-17 -0.166299 0.885365 -5.59297e-18 0 0 1)
(1.33432 -0.159888 8.03869e-20 -0.159888 0.880706 2.5355e-19 0 0 1)
(1.3388 -0.153346 -1.88684e-17 -0.153346 0.876233 1.04948e-17 0 0 1)
(1.34308 -0.146679 -1.28363e-18 -0.146679 0.871948 -4.48999e-18 0 0 1)
(1.34717 -0.139892 2.4735e-18 -0.139892 0.867856 9.14411e-18 0 0 1)
(1.35107 -0.132991 4.0878e-17 -0.132991 0.863959 -1.04335e-17 0 0 1)
(1.35477 -0.125982 -2.27072e-17 -0.125982 0.86026 -4.222e-18 0 0 1)
(1.35826 -0.11887 -4.11884e-17 -0.11887 0.856764 9.13216e-18 0 0 1)
(1.36156 -0.111661 2.45795e-17 -0.111661 0.853472 1.43994e-17 0 0 1)
(1.36464 -0.104361 9.45067e-18 -0.104361 0.850387 -6.6367e-18 0 0 1)
(1.36752 -0.0969761 -2.07591e-17 -0.0969761 0.847511 3.74535e-18 0 0 1)
(1.37018 -0.0895119 1.11741e-17 -0.0895119 0.844848 2.91558e-18 0 0 1)
(1.37263 -0.0819747 4.09977e-17 -0.0819747 0.842399 -1.1051e-17 0 0 1)
(1.37486 -0.0743706 -1.04277e-17 -0.0743706 0.840166 1.59115e-18 0 0 1)
(1.37688 -0.0667059 -3.20022e-17 -0.0667059 0.838152 -1.03535e-18 0 0 1)
(1.37867 -0.0589868 0 -0.0589868 0.836357 0 0 0 1)
(1.38025 -0.0512195 1.04986e-17 -0.0512195 0.834783 -1.01068e-18 0 0 1)
(1.3816 -0.0434105 3.15412e-17 -0.0434105 0.833431 -2.5157e-18 0 0 1)
(1.38273 -0.0355661 -1.11315e-17 -0.0355661 0.832303 -8.74272e-18 0 0 1)
(1.38363 -0.0276926 -2.08346e-17 -0.0276926 0.8314 5.71789e-18 0 0 1)
(1.38431 -0.0197966 3.162e-17 -0.0197966 0.830722 -1.16258e-18 0 0 1)
(1.38476 -0.0118844 -2.0289e-19 -0.0118844 0.830269 -9.47057e-18 0 0 1)
(1.38499 -0.00396255 -2.10942e-17 -0.00396255 0.830043 8.41158e-20 0 0 1)
(0.832964 -0.00388661 -4.78641e-18 -0.00388661 1.37727 -3.41754e-20 0 0 1)
(0.833186 -0.0116567 -9.11043e-18 -0.0116567 1.37705 -2.05842e-17 0 0 1)
(0.83363 -0.0194172 -3.53038e-21 -0.0194172 1.37661 -1.26021e-22 0 0 1)
(0.834295 -0.0271619 -1.55975e-18 -0.0271619 1.37594 3.05367e-17 0 0 1)
(0.835181 -0.0348845 -8.32888e-18 -0.0348845 1.37506 -2.09624e-17 0 0 1)
(0.836288 -0.0425786 4.8325e-18 -0.0425786 1.37395 3.80325e-19 0 0 1)
(0.837613 -0.050238 -1.48554e-19 -0.050238 1.37262 -1.38283e-20 0 0 1)
(0.839157 -0.0578564 1.04453e-19 -0.0578564 1.37108 1.12299e-20 0 0 1)
(0.840918 -0.0654276 -7.34742e-18 -0.0654276 1.36932 1.96392e-17 0 0 1)
(0.842894 -0.0729454 6.06543e-18 -0.0729454 1.36734 -9.45874e-18 0 0 1)
(0.845084 -0.0804038 -8.72923e-20 -0.0804038 1.36515 -1.31876e-20 0 0 1)
(0.847486 -0.0877965 1.08539e-17 -0.0877965 1.36275 2.24609e-17 0 0 1)
(0.850098 -0.0951177 -1.29299e-17 -0.0951177 1.36014 1.83806e-17 0 0 1)
(0.852918 -0.102361 -8.12406e-19 -0.102361 1.35732 -2.09276e-17 0 0 1)
(0.855944 -0.109521 -1.38403e-17 -0.109521 1.35429 -2.90744e-18 0 0 1)
(0.859173 -0.116592 -2.24573e-18 -0.116592 1.35106 9.94167e-18 0 0 1)
(0.862603 -0.123568 4.75862e-18 -0.123568 1.34763 -1.98211e-17 0 0 1)
(0.86623 -0.130443 7.14688e-18 -0.130443 1.34401 -8.69476e-18 0 0 1)
(0.870053 -0.137211 -4.66308e-18 -0.137211 1.34018 -1.26137e-18 0 0 1)
(0.874067 -0.143868 -9.2043e-18 -0.143868 1.33617 -2.63139e-18 0 0 1)
(0.878269 -0.150407 -2.91036e-18 -0.150407 1.33197 9.76785e-18 0 0 1)
(0.882657 -0.156824 -1.21943e-17 -0.156824 1.32758 6.826e-18 0 0 1)
(0.887226 -0.163112 4.54158e-18 -0.163112 1.32301 1.51158e-18 0 0 1)
(0.891972 -0.169268 4.47785e-18 -0.169268 1.31826 1.56174e-18 0 0 1)
(0.896893 -0.175286 5.93465e-18 -0.175286 1.31334 -3.03828e-17 0 0 1)
(0.901983 -0.18116 -7.74738e-19 -0.18116 1.30825 -1.12026e-17 0 0 1)
(0.907239 -0.186887 -3.22506e-18 -0.186887 1.303 2.06541e-17 0 0 1)
(0.912657 -0.192461 -2.14777e-17 -0.192461 1.29758 2.13554e-18 0 0 1)
(0.918231 -0.197879 -8.41905e-18 -0.197879 1.29201 7.4697e-18 0 0 1)
(0.923958 -0.203135 4.25911e-18 -0.203135 1.28628 -9.26013e-18 0 0 1)
(0.929833 -0.208225 4.38688e-18 -0.208225 1.2804 1.3283e-17 0 0 1)
(0.93585 -0.213146 4.10216e-18 -0.213146 1.27439 1.32987e-17 0 0 1)
(0.942006 -0.217893 9.71015e-20 -0.217893 1.26823 4.86055e-20 0 0 1)
(0.948295 -0.222462 4.64523e-18 -0.222462 1.26194 -9.07219e-18 0 0 1)
(0.954711 -0.226849 4.86686e-18 -0.226849 1.25553 -8.95524e-18 0 0 1)
(0.96125 -0.231052 -1.77508e-20 -0.231052 1.24899 -9.85784e-21 0 0 1)
(0.967907 -0.235066 5.103e-18 -0.235066 1.24233 -8.82272e-18 0 0 1)
(0.974676 -0.238888 -1.85031e-17 -0.238888 1.23556 1.27239e-17 0 0 1)
(0.98155 -0.242516 -1.87175e-17 -0.242516 1.22869 1.24372e-17 0 0 1)
(0.988526 -0.245945 1.0918e-17 -0.245945 1.22171 -1.72139e-17 0 0 1)
(0.995597 -0.249174 2.71552e-17 -0.249174 1.21464 -6.61637e-18 0 0 1)
(1.00276 -0.2522 0 -0.2522 1.20748 0 0 0 1)
(1.01 -0.25502 -3.7817e-18 -0.25502 1.20024 2.21902e-17 0 0 1)
(1.01732 -0.257633 -6.01038e-18 -0.257633 1.19291 8.23193e-18 0 0 1)
(1.02471 -0.260035 1.21346e-17 -0.260035 1.18552 -1.63791e-17 0 0 1)
(1.03217 -0.262225 -9.97059e-18 -0.262225 1.17806 5.22475e-18 0 0 1)
(1.03969 -0.264201 1.18158e-18 -0.264201 1.17055 1.38667e-17 0 0 1)
(1.04726 -0.265961 1.27561e-17 -0.265961 1.16297 -1.58998e-17 0 0 1)
(1.05488 -0.267505 -7.31785e-18 -0.267505 1.15536 -6.07147e-18 0 0 1)
(1.06254 -0.268831 -6.54308e-18 -0.268831 1.1477 7.81525e-18 0 0 1)
(1.07023 -0.269937 -1.06854e-17 -0.269937 1.14 -9.39334e-18 0 0 1)
(1.07796 -0.270823 -3.73616e-18 -0.270823 1.13228 -1.71246e-17 0 0 1)
(1.0857 -0.271488 -1.04099e-17 -0.271488 1.12454 4.23375e-18 0 0 1)
(1.09346 -0.271932 -2.09972e-17 -0.271932 1.11677 8.11315e-18 0 0 1)
(1.10123 -0.272154 2.85608e-17 -0.272154 1.109 -2.90923e-17 0 0 1)
(1.109 -0.272154 2.12489e-17 -0.272154 1.10123 -7.48132e-18 0 0 1)
(1.11677 -0.271932 -4.26839e-17 -0.271932 1.09346 1.43785e-17 0 0 1)
(1.12454 -0.271488 -4.26383e-18 -0.271488 1.0857 1.03776e-17 0 0 1)
(1.13228 -0.270823 2.35975e-18 -0.270823 1.07796 -2.77754e-17 0 0 1)
(1.14 -0.269937 6.30478e-18 -0.269937 1.07023 7.17198e-18 0 0 1)
(1.1477 -0.268831 -2.16889e-17 -0.268831 1.06254 5.9927e-18 0 0 1)
(1.15536 -0.267505 9.0996e-18 -0.267505 1.05488 1.09676e-17 0 0 1)
(1.16297 -0.265961 6.94496e-18 -0.265961 1.04726 -2.38684e-17 0 0 1)
(1.17055 -0.264201 1.09419e-17 -0.264201 1.03969 -2.55594e-18 0 0 1)
(1.17806 -0.262225 -1.33228e-17 -0.262225 1.03217 1.61595e-17 0 0 1)
(1.18552 -0.260035 1.12876e-17 -0.260035 1.02471 1.5305e-17 0 0 1)
(1.19291 -0.257633 -2.73641e-18 -0.257633 1.01732 -3.82345e-18 0 0 1)
(1.20024 -0.25502 -4.8335e-20 -0.25502 1.01 -6.96156e-20 0 0 1)
(1.20748 -0.2522 -5.2749e-18 -0.2522 1.00276 -7.83375e-18 0 0 1)
(1.21464 -0.249174 -1.63404e-17 -0.249174 0.995597 -6.38604e-18 0 0 1)
(1.22171 -0.245945 1.7203e-17 -0.245945 0.988526 -1.09352e-17 0 0 1)
(1.22869 -0.242516 2.35529e-17 -0.242516 0.98155 -2.00848e-17 0 0 1)
(1.23556 -0.238888 -2.2362e-17 -0.238888 0.974676 2.25888e-18 0 0 1)
(1.24233 -0.235066 -2.18297e-17 -0.235066 0.967907 2.33873e-17 0 0 1)
(1.24899 -0.231052 1.12499e-17 -0.231052 0.96125 -7.35604e-19 0 0 1)
(1.25553 -0.226849 2.08776e-20 -0.226849 0.954711 3.88921e-20 0 0 1)
(1.26194 -0.222462 9.05349e-18 -0.222462 0.948295 -4.68128e-18 0 0 1)
(1.26823 -0.217893 2.73278e-17 -0.217893 0.942006 -1.37154e-17 0 0 1)
(1.27439 -0.213146 2.07966e-18 -0.213146 0.93585 4.30721e-18 0 0 1)
(1.2804 -0.208225 -1.44696e-17 -0.208225 0.929833 1.7221e-17 0 0 1)
(1.28628 -0.203135 1.93921e-18 -0.203135 0.923958 4.32778e-18 0 0 1)
(1.29201 -0.197879 -5.64911e-18 -0.197879 0.918231 -1.31056e-17 0 0 1)
(1.29758 -0.192461 -7.62294e-18 -0.192461 0.912657 8.22997e-18 0 0 1)
(1.303 -0.186887 2.51148e-20 -0.186887 0.907239 6.3169e-20 0 0 1)
(1.30825 -0.18116 9.53534e-18 -0.18116 0.901983 -3.59977e-18 0 0 1)
(1.31334 -0.175286 -1.64066e-18 -0.175286 0.896893 -4.49656e-18 0 0 1)
(1.31826 -0.169268 -9.62756e-18 -0.169268 0.891972 3.34519e-18 0 0 1)
(1.32301 -0.163112 2.07981e-17 -0.163112 0.887226 -2.05995e-18 0 0 1)
(1.32758 -0.156824 5.84303e-20 -0.156824 0.882657 1.84297e-19 0 0 1)
(1.33197 -0.150407 -2.7935e-17 -0.150407 0.878269 1.32717e-17 0 0 1)
(1.33617 -0.143868 8.48713e-18 -0.143868 0.874067 -7.39226e-18 0 0 1)
(1.34018 -0.137211 1.48233e-17 -0.137211 0.870053 1.57664e-17 0 0 1)
(1.34401 -0.130443 -1.18374e-18 -0.130443 0.86623 -4.63784e-18 0 0 1)
(1.34763 -0.123568 -2.20202e-17 -0.123568 0.862603 -4.40142e-18 0 0 1)
(1.35106 -0.116592 2.08954e-17 -0.116592 0.859173 6.03444e-21 0 0 1)
(1.35429 -0.109521 1.19526e-17 -0.109521 0.855944 7.32118e-18 0 0 1)
(1.35732 -0.102361 -3.00201e-17 -0.102361 0.852918 5.80652e-18 0 0 1)
(1.36014 -0.0951177 0 -0.0951177 0.850098 0 0 0 1)
(1.36275 -0.0877966 3.12284e-18 -0.0877965 0.847486 1.8845e-17 0 0 1)
(1.36515 -0.0804038 3.02255e-17 -0.0804038 0.845084 -4.6194e-18 0 0 1)
(1.36734 -0.0729454 -1.13627e-17 -0.0729454 0.842894 -7.88319e-18 0 0 1)
(1.36932 -0.0654276 -2.97861e-17 -0.0654276 0.840918 8.33745e-18 0 0 1)
(1.37108 -0.0578564 9.62554e-18 -0.0578564 0.839157 -5.81656e-18 0 0 1)
(1.37262 -0.050238 9.70164e-18 -0.050238 0.837613 -5.74268e-18 0 0 1)
(1.37395 -0.0425786 9.78771e-18 -0.0425786 0.836288 -5.53932e-18 0 0 1)
(1.37506 -0.0348845 -6.09071e-19 -0.0348845 0.835181 -9.4652e-18 0 0 1)
(1.37594 -0.0271619 2.36925e-19 -0.0271619 0.834295 4.73646e-18 0 0 1)
(1.37661 -0.0194172 0 -0.0194172 0.83363 0 0 0 1)
(1.37705 -0.0116567 -2.03148e-19 -0.0116567 0.833186 -9.4826e-18 0 0 1)
(1.37727 -0.00388661 0 -0.00388661 0.832964 0 0 0 1)
(0.837086 -0.00380419 8.24169e-20 -0.00380419 1.36985 -9.85436e-18 0 0 1)
(0.837303 -0.0114095 6.19801e-20 -0.0114095 1.36963 1.32776e-21 0 0 1)
(0.837737 -0.0190055 -1.88529e-17 -0.0190055 1.3692 -6.73333e-19 0 0 1)
(0.838388 -0.0265859 -9.85367e-18 -0.0265859 1.36855 9.37412e-18 0 0 1)
(0.839256 -0.0341447 1.4089e-17 -0.0341447 1.36768 9.06604e-19 0 0 1)
(0.840338 -0.0416757 -7.74283e-18 -0.0416757 1.3666 -2.03797e-17 0 0 1)
(0.841636 -0.0491726 -4.75551e-18 -0.0491726 1.3653 -4.42678e-19 0 0 1)
(0.843147 -0.0566295 -1.13714e-17 -0.0566295 1.36379 1.86004e-17 0 0 1)
(0.84487 -0.0640401 3.4554e-18 -0.0640401 1.36207 1.03492e-17 0 0 1)
(0.846804 -0.0713985 9.48315e-18 -0.0713985 1.36013 1.29443e-18 0 0 1)
(0.848948 -0.0786987 4.34813e-18 -0.0786987 1.35799 -2.92427e-17 0 0 1)
(0.851299 -0.0859347 3.32068e-18 -0.0859347 1.35564 -1.94279e-17 0 0 1)
(0.853856 -0.0931007 2.23196e-18 -0.0931007 1.35308 4.04579e-17 0 0 1)
(0.856616 -0.100191 -1.97931e-18 -0.100191 1.35032 9.65433e-18 0 0 1)
(0.859578 -0.107199 4.09405e-18 -0.107199 1.34736 -1.92795e-17 0 0 1)
(0.862738 -0.11412 9.21158e-18 -0.11412 1.3442 2.07285e-18 0 0 1)
(0.866095 -0.120947 4.54196e-18 -0.120947 1.34084 1.09043e-18 0 0 1)
(0.869646 -0.127677 -2.34703e-18 -0.127677 1.33729 9.57158e-18 0 0 1)
(0.873387 -0.134302 -5.12319e-18 -0.134302 1.33355 1.90319e-17 0 0 1)
(0.877316 -0.140817 2.36436e-17 -0.140817 1.32962 -1.37396e-17 0 0 1)
(0.88143 -0.147218 1.18714e-19 -0.147218 1.32551 3.57802e-20 0 0 1)
(0.885724 -0.153498 4.43455e-18 -0.153498 1.32121 1.40595e-18 0 0 1)
(0.890196 -0.159653 1.66319e-17 -0.159653 1.31674 -4.85057e-18 0 0 1)
(0.894842 -0.165678 1.19443e-18 -0.165678 1.31209 1.08535e-17 0 0 1)
(0.899658 -0.171568 -4.4463e-18 -0.171568 1.30728 -1.62232e-18 0 0 1)
(0.904641 -0.177318 -8.72467e-18 -0.177318 1.3023 -3.32528e-18 0 0 1)
(0.909785 -0.182924 -3.57203e-18 -0.182924 1.29715 9.18484e-18 0 0 1)
(0.915088 -0.18838 2.22753e-20 -0.18838 1.29185 9.22677e-21 0 0 1)
(0.920544 -0.193683 1.98929e-17 -0.193683 1.28639 -3.43501e-17 0 0 1)
(0.92615 -0.198827 8.37249e-18 -0.198827 1.28079 -7.04721e-18 0 0 1)
(0.9319 -0.20381 -8.37158e-18 -0.20381 1.27504 1.78432e-17 0 0 1)
(0.93779 -0.208626 -7.75398e-20 -0.208626 1.26915 -3.74388e-20 0 0 1)
(0.943815 -0.213272 -1.89528e-19 -0.213272 1.26312 1.09255e-17 0 0 1)
(0.94997 -0.217744 -4.60226e-18 -0.217744 1.25697 8.71435e-18 0 0 1)
(0.956251 -0.222039 -3.66872e-18 -0.222039 1.25069 -1.31542e-17 0 0 1)
(0.962651 -0.226152 8.91172e-18 -0.226152 1.24429 -6.32328e-18 0 0 1)
(0.969167 -0.230081 0 -0.230081 1.23777 0 0 0 1)
(0.975792 -0.233822 8.14093e-18 -0.233822 1.23114 4.83024e-18 0 0 1)
(0.982521 -0.237373 7.99771e-18 -0.237373 1.22442 4.901e-18 0 0 1)
(0.989348 -0.24073 1.04119e-17 -0.24073 1.21759 -1.67354e-17 0 0 1)
(0.996269 -0.24389 7.95832e-18 -0.24389 1.21067 5.19516e-18 0 0 1)
(1.00328 -0.246852 -1.10598e-17 -0.246852 1.20366 1.63139e-17 0 0 1)
(1.01037 -0.249613 -1.11898e-17 -0.249613 1.19657 1.62251e-17 0 0 1)
(1.01753 -0.252169 7.59689e-18 -0.252169 1.1894 5.43702e-18 0 0 1)
(1.02477 -0.25452 -9.56827e-18 -0.25452 1.18217 5.18823e-18 0 0 1)
(1.03207 -0.256664 -4.52468e-20 -0.256664 1.17487 -3.4378e-20 0 0 1)
(1.03943 -0.258598 1.35823e-17 -0.258598 1.16751 -1.88455e-18 0 0 1)
(1.04684 -0.260321 -1.60671e-17 -0.260321 1.1601 1.23648e-17 0 0 1)
(1.0543 -0.261832 2.51407e-17 -0.261832 1.15264 -3.0361e-17 0 0 1)
(1.06179 -0.26313 2.86788e-18 -0.26313 1.14514 -1.05104e-17 0 0 1)
(1.06932 -0.264213 -1.60345e-17 -0.264213 1.13761 2.52678e-17 0 0 1)
(1.07688 -0.26508 -3.07873e-18 -0.26508 1.13005 1.05039e-17 0 0 1)
(1.08446 -0.265731 -6.67484e-18 -0.265731 1.12247 7.25015e-18 0 0 1)
(1.09206 -0.266165 6.79509e-18 -0.266165 1.11488 -7.13742e-18 0 0 1)
(1.09966 -0.266383 2.05472e-17 -0.266383 1.10727 -7.42049e-18 0 0 1)
(1.10727 -0.266383 -2.753e-17 -0.266383 1.09966 1.41858e-17 0 0 1)
(1.11488 -0.266165 -7.14695e-18 -0.266165 1.09206 6.78515e-18 0 0 1)
(1.12247 -0.265731 2.09307e-17 -0.265731 1.08446 -6.44296e-18 0 0 1)
(1.13005 -0.26508 4.09888e-18 -0.26508 1.07688 -1.01583e-17 0 0 1)
(1.13761 -0.264213 8.18625e-20 -0.264213 1.06932 9.31219e-20 0 0 1)
(1.14514 -0.26313 3.02129e-18 -0.26313 1.06179 3.53747e-18 0 0 1)
(1.15264 -0.261832 7.5886e-18 -0.261832 1.0543 -6.28716e-18 0 0 1)
(1.1601 -0.260321 -4.7229e-18 -0.260321 1.04684 9.84471e-18 0 0 1)
(1.16751 -0.258598 7.76822e-18 -0.258598 1.03943 -6.06382e-18 0 0 1)
(1.17487 -0.256664 2.35214e-17 -0.256664 1.03207 -1.79103e-17 0 0 1)
(1.18217 -0.25452 -1.02354e-17 -0.25452 1.02477 1.93278e-17 0 0 1)
(1.1894 -0.252169 -2.40814e-17 -0.252169 1.01753 1.71501e-17 0 0 1)
(1.19657 -0.249613 5.4095e-18 -0.249613 1.01037 7.79116e-18 0 0 1)
(1.20366 -0.246852 -5.27365e-18 -0.246852 1.00328 -7.8319e-18 0 0 1)
(1.21067 -0.24389 5.18481e-18 -0.24389 0.996269 7.94246e-18 0 0 1)
(1.21759 -0.24073 2.52024e-18 -0.24073 0.989348 3.98383e-18 0 0 1)
(1.22442 -0.237373 -4.8911e-18 -0.237373 0.982521 -7.98156e-18 0 0 1)
(1.23114 -0.233822 3.68537e-18 -0.233822 0.975792 -1.31014e-17 0 0 1)
(1.23777 -0.230081 2.17937e-17 -0.230081 0.969167 -1.62589e-18 0 0 1)
(1.24429 -0.226152 2.27699e-18 -0.226152 0.962651 4.10013e-18 0 0 1)
(1.25069 -0.222039 -2.25894e-18 -0.222039 0.956251 -4.20809e-18 0 0 1)
(1.25697 -0.217744 2.15898e-18 -0.217744 0.94997 4.16348e-18 0 0 1)
(1.26312 -0.213272 -4.23716e-18 -0.213272 0.943815 -8.46477e-18 0 0 1)
(1.26915 -0.208626 1.36434e-17 -0.208626 0.93779 -1.70724e-17 0 0 1)
(1.27504 -0.20381 1.59828e-20 -0.20381 0.9319 3.4347e-20 0 0 1)
(1.28079 -0.198827 -2.69921e-17 -0.198827 0.92615 1.20608e-17 0 0 1)
(1.28639 -0.193683 -1.80825e-17 -0.193683 0.920544 7.84124e-18 0 0 1)
(1.29185 -0.18838 2.72873e-17 -0.18838 0.915088 -1.13773e-17 0 0 1)
(1.29715 -0.182924 2.00846e-17 -0.182924 0.909785 -2.83071e-18 0 0 1)
(1.3023 -0.177318 -2.76366e-17 -0.177318 0.904641 1.05001e-17 0 0 1)
(1.30728 -0.171568 -1.24982e-17 -0.171568 0.899658 -5.50342e-18 0 0 1)
(1.31209 -0.165678 -3.10314e-18 -0.165678 0.894842 -8.89737e-18 0 0 1)
(1.31674 -0.159653 2.95165e-17 -0.159653 0.890196 -4.93375e-18 0 0 1)
(1.32121 -0.153498 -2.80461e-18 -0.153498 0.885724 -8.84611e-18 0 0 1)
(1.32551 -0.147218 -2.69673e-17 -0.147218 0.88143 1.29741e-17 0 0 1)
(1.32962 -0.140817 2.97007e-17 -0.140817 0.877316 -3.66513e-18 0 0 1)
(1.33355 -0.134302 2.608e-20 -0.134302 0.873387 9.64128e-20 0 0 1)
(1.33729 -0.127677 -2.14582e-17 -0.127677 0.869646 -4.37616e-18 0 0 1)
(1.34084 -0.120947 1.44724e-20 -0.120947 0.866095 6.02814e-20 0 0 1)
(1.3442 -0.11412 2.05508e-18 -0.11412 0.862738 9.13262e-18 0 0 1)
(1.34736 -0.107199 7.72222e-18 -0.107199 0.859578 -1.11752e-17 0 0 1)
(1.35032 -0.100191 -1.05812e-17 -0.100191 0.856616 -2.76914e-18 0 0 1)
(1.35308 -0.0931007 2.02146e-17 -0.0931007 0.853856 1.03633e-18 0 0 1)
(1.35564 -0.0859347 1.05001e-17 -0.0859347 0.851299 3.08375e-18 0 0 1)
(1.35799 -0.0786987 -1.87969e-17 -0.0786987 0.848948 7.52021e-18 0 0 1)
(1.36013 -0.0713985 -1.26858e-18 -0.0713985 0.846804 -9.29375e-18 0 0 1)
(1.36207 -0.0640401 -1.84211e-17 -0.0640401 0.84487 1.17589e-17 0 0 1)
(1.36379 -0.0566295 -1.90926e-17 -0.0566295 0.843147 6.79391e-18 0 0 1)
(1.3653 -0.0491726 1.02521e-17 -0.0491726 0.841636 3.81125e-18 0 0 1)
(1.3666 -0.0416757 1.89093e-17 -0.0416757 0.840338 -1.09403e-17 0 0 1)
(1.36768 -0.0341447 9.83635e-18 -0.0341447 0.839256 -6.01893e-19 0 0 1)
(1.36855 -0.0265859 -4.72915e-19 -0.0265859 0.838388 -9.45422e-18 0 0 1)
(1.3692 -0.0190055 0 -0.0190055 0.837737 0 0 0 1)
(1.36963 -0.0114095 0 -0.0114095 0.837303 0 0 0 1)
(1.36985 -0.00380419 0 -0.00380419 0.837086 0 0 0 1)
(0.84041 -0.00372913 -4.74176e-18 -0.00372913 1.36266 -3.38567e-20 0 0 1)
(0.840623 -0.0111843 -3.48446e-19 -0.0111843 1.36245 1.90619e-17 0 0 1)
(0.841049 -0.0186304 3.99851e-18 -0.0186304 1.36202 1.922e-17 0 0 1)
(0.841687 -0.0260613 1.86952e-18 -0.0260613 1.36139 -3.80841e-17 0 0 1)
(0.842537 -0.033471 1.06153e-17 -0.033471 1.36054 -1.84213e-17 0 0 1)
(0.843599 -0.0408533 -1.23621e-17 -0.0408533 1.35947 3.7275e-17 0 0 1)
(0.84487 -0.0482023 -3.53154e-20 -0.0482023 1.3582 -3.28743e-21 0 0 1)
(0.846351 -0.055512 1.14431e-17 -0.055512 1.35672 -1.79446e-17 0 0 1)
(0.848041 -0.0627764 2.16523e-18 -0.0627764 1.35503 -1.89422e-17 0 0 1)
(0.849937 -0.0699897 4.64988e-18 -0.0699897 1.35314 6.347e-19 0 0 1)
(0.852038 -0.0771458 1.55974e-17 -0.0771458 1.35103 2.16377e-17 0 0 1)
(0.854343 -0.084239 -9.18973e-18 -0.084239 1.34873 -1.52285e-18 0 0 1)
(0.856849 -0.0912635 -3.32609e-18 -0.0912635 1.34622 1.87727e-17 0 0 1)
(0.859555 -0.0982136 -1.17597e-19 -0.0982136 1.34352 -2.29551e-20 0 0 1)
(0.862458 -0.105084 -6.6252e-19 -0.105084 1.34061 -1.96203e-17 0 0 1)
(0.865557 -0.111868 0 -0.111868 1.33752 0 0 0 1)
(0.868847 -0.118561 -4.61086e-18 -0.118561 1.33422 -1.10697e-18 0 0 1)
(0.872328 -0.125157 0 -0.125157 1.33074 0 0 0 1)
(0.875995 -0.131651 1.88326e-17 -0.131651 1.32708 -3.44061e-17 0 0 1)
(0.879847 -0.138038 9.02445e-18 -0.138038 1.32323 2.57997e-18 0 0 1)
(0.883879 -0.144313 -2.01176e-17 -0.144313 1.31919 3.37608e-17 0 0 1)
(0.888089 -0.150469 5.62429e-18 -0.150469 1.31498 -1.82171e-17 0 0 1)
(0.892473 -0.156503 -8.88475e-18 -0.156503 1.3106 -2.95713e-18 0 0 1)
(0.897027 -0.162409 -1.70342e-17 -0.162409 1.30605 3.44415e-17 0 0 1)
(0.901748 -0.168183 4.34206e-18 -0.168183 1.30132 1.58428e-18 0 0 1)
(0.906632 -0.17382 1.1198e-17 -0.17382 1.29644 -1.61348e-17 0 0 1)
(0.911675 -0.179314 4.32801e-18 -0.179314 1.2914 1.72073e-18 0 0 1)
(0.916873 -0.184663 8.60599e-18 -0.184663 1.2862 3.56472e-18 0 0 1)
(0.922222 -0.189861 -4.35456e-18 -0.189861 1.28085 -1.87701e-18 0 0 1)
(0.927717 -0.194904 7.6974e-20 -0.194904 1.27536 3.44908e-20 0 0 1)
(0.933353 -0.199788 -7.98919e-18 -0.199788 1.26972 1.73104e-17 0 0 1)
(0.939127 -0.204509 -3.19399e-20 -0.204509 1.26395 -1.54216e-20 0 0 1)
(0.945033 -0.209064 1.07143e-19 -0.209064 1.25804 5.36316e-20 0 0 1)
(0.951067 -0.213447 -1.29643e-17 -0.213447 1.25201 1.47532e-17 0 0 1)
(0.957223 -0.217657 1.31424e-17 -0.217657 1.24585 -1.45833e-17 0 0 1)
(0.963498 -0.221689 9.30849e-18 -0.221689 1.23957 -1.66382e-17 0 0 1)
(0.969885 -0.225541 9.44122e-18 -0.225541 1.23319 -1.65632e-17 0 0 1)
(0.976379 -0.229208 3.0503e-20 -0.229208 1.22669 1.80982e-20 0 0 1)
(0.982975 -0.232689 -2.79372e-17 -0.232689 1.2201 2.76e-17 0 0 1)
(0.989668 -0.23598 1.01119e-17 -0.23598 1.2134 -1.61627e-17 0 0 1)
(0.996452 -0.239078 2.70126e-18 -0.239078 1.20662 -2.10043e-17 0 0 1)
(1.00332 -0.241981 -1.06982e-17 -0.241981 1.19975 1.57806e-17 0 0 1)
(1.01027 -0.244687 0 -0.244687 1.1928 0 0 0 1)
(1.0173 -0.247193 -3.47205e-18 -0.247193 1.18578 2.09597e-17 0 0 1)
(1.02439 -0.249498 -2.85447e-20 -0.249498 1.17868 -2.10519e-20 0 0 1)
(1.03155 -0.251599 3.01914e-17 -0.251599 1.17153 -1.00456e-18 0 0 1)
(1.03876 -0.253495 -1.17023e-17 -0.253495 1.16431 1.5051e-17 0 0 1)
(1.04602 -0.255185 7.22547e-18 -0.255185 1.15705 5.82265e-18 0 0 1)
(1.05333 -0.256666 7.2611e-18 -0.256666 1.14974 6.02439e-18 0 0 1)
(1.06068 -0.257938 -7.1102e-18 -0.257938 1.14239 -6.07268e-18 0 0 1)
(1.06807 -0.258999 1.61305e-17 -0.258999 1.13501 -1.12042e-17 0 0 1)
(1.07547 -0.259849 3.45379e-18 -0.259849 1.1276 3.12472e-18 0 0 1)
(1.08291 -0.260487 -1.30091e-17 -0.260487 1.12017 1.39369e-17 0 0 1)
(1.09035 -0.260913 6.70069e-18 -0.260913 1.11272 6.41962e-18 0 0 1)
(1.09781 -0.261126 1.67439e-17 -0.261126 1.10527 -1.02651e-17 0 0 1)
(1.10527 -0.261126 0 -0.261126 1.09781 0 0 0 1)
(1.11272 -0.260913 1.28883e-17 -0.260913 1.09035 1.34526e-17 0 0 1)
(1.12017 -0.260487 -1.0739e-17 -0.260487 1.08291 1.64439e-17 0 0 1)
(1.1276 -0.259849 6.22565e-18 -0.259849 1.07547 6.88128e-18 0 0 1)
(1.13501 -0.258999 1.43584e-17 -0.258999 1.06807 -1.25425e-17 0 0 1)
(1.14239 -0.257938 -8.40858e-18 -0.257938 1.06068 1.95105e-17 0 0 1)
(1.14974 -0.256666 -6.02439e-18 -0.256666 1.05333 -7.2611e-18 0 0 1)
(1.15705 -0.255185 2.37027e-17 -0.255185 1.04602 -9.70732e-19 0 0 1)
(1.16431 -0.253495 2.87037e-18 -0.253495 1.03876 3.66791e-18 0 0 1)
(1.17153 -0.251599 0 -0.251599 1.03155 0 0 0 1)
(1.17868 -0.249498 -5.52892e-18 -0.249498 1.02439 -7.49675e-18 0 0 1)
(1.18578 -0.247193 1.08917e-17 -0.247193 1.0173 1.52185e-17 0 0 1)
(1.1928 -0.244687 -7.60923e-18 -0.244687 1.01027 2.24691e-17 0 0 1)
(1.19975 -0.241981 -6.69215e-20 -0.241981 1.00332 -9.93853e-20 0 0 1)
(1.20662 -0.239078 2.36812e-17 -0.239078 0.996452 1.39948e-18 0 0 1)
(1.2134 -0.23598 -1.61247e-17 -0.23598 0.989668 1.01719e-17 0 0 1)
(1.2201 -0.232689 2.41502e-18 -0.232689 0.982975 3.94095e-18 0 0 1)
(1.22669 -0.229208 2.11799e-17 -0.229208 0.976379 -1.66569e-18 0 0 1)
(1.23319 -0.225541 0 -0.225541 0.969885 0 0 0 1)
(1.23957 -0.221689 -7.51131e-18 -0.221689 0.963498 2.57431e-17 0 0 1)
(1.24585 -0.217657 -1.67754e-20 -0.217657 0.957223 -3.125e-20 0 0 1)
(1.25201 -0.213447 5.51562e-20 -0.213447 0.951067 1.06366e-19 0 0 1)
(1.25804 -0.209064 -1.58761e-20 -0.209064 0.945033 -3.17164e-20 0 0 1)
(1.26395 -0.204509 1.71946e-17 -0.204509 0.939127 -8.23556e-18 0 0 1)
(1.26972 -0.199788 -3.93001e-18 -0.199788 0.933353 -8.44543e-18 0 0 1)
(1.27536 -0.194904 3.84351e-18 -0.194904 0.927717 8.57766e-18 0 0 1)
(1.28085 -0.189861 5.56425e-18 -0.189861 0.922222 1.29088e-17 0 0 1)
(1.2862 -0.184663 7.16171e-18 -0.184663 0.916873 1.72899e-17 0 0 1)
(1.2914 -0.179314 -3.44147e-18 -0.179314 0.911675 -8.65602e-18 0 0 1)
(1.29644 -0.17382 -2.11411e-17 -0.17382 0.906632 -1.93721e-18 0 0 1)
(1.30132 -0.168183 -1.63052e-17 -0.168183 0.901748 1.09332e-17 0 0 1)
(1.30605 -0.162409 1.95434e-17 -0.162409 0.897027 -1.8576e-18 0 0 1)
(1.3106 -0.156503 2.25475e-17 -0.156503 0.892473 7.37371e-18 0 0 1)
(1.31498 -0.150469 -5.65586e-18 -0.150469 0.888089 -1.78393e-17 0 0 1)
(1.31919 -0.144313 4.05649e-18 -0.144313 0.883879 1.34589e-17 0 0 1)
(1.32323 -0.138038 3.8639e-18 -0.138038 0.879847 1.35155e-17 0 0 1)
(1.32708 -0.131651 -2.32746e-17 -0.131651 0.875995 -1.30292e-17 0 0 1)
(1.33074 -0.125157 1.14307e-18 -0.125157 0.872328 4.47849e-18 0 0 1)