/*--------------------------------*- C++ -*----------------------------------*\
| =========                 |                                                 |
| \\      /  F ield         | OpenFOAM: The Open Source CFD Toolbox           |
|  \\    /   O peration     | Version:  2312                                  |
|   \\  /    A nd           | Website:  www.openfoam.com                      |
|    \\/     M anipulation  |                                                 |
\*---------------------------------------------------------------------------*/
FoamFile
{
    version     2.0;
    format      ascii;
    arch        "LSB;label=32;scalar=64";
    class       pointVectorField;
    location    "70";
    object      pointD;
}
// * * * * * * * * * * * * * * * * * * * * * * * * * * * * * * * * * * * * * //

dimensions      [0 1 0 0 0 0 0];

internalField   nonuniform List<vector> 
26196
(
(2.72273 0 0)
(2.1029 0 0)
(0 2.72273 0)
(0 2.1029 0)
(2.72273 0 0)
(2.1029 0 0)
(0 2.1029 0)
(0 2.72273 0)
(2.70577 0 0)
(2.68914 0 0)
(2.67296 0 0)
(2.65709 0 0)
(2.6416 0 0)
(2.62643 0 0)
(2.61161 0 0)
(2.59712 0 0)
(2.58295 0 0)
(2.5691 0 0)
(2.55556 0 0)
(2.54232 0 0)
(2.52938 0 0)
(2.51673 0 0)
(2.50437 0 0)
(2.4923 0 0)
(2.48049 0 0)
(2.46896 0 0)
(2.4577 0 0)
(2.44669 0 0)
(2.43594 0 0)
(2.42544 0 0)
(2.41518 0 0)
(2.40517 0 0)
(2.39539 0 0)
(2.38584 0 0)
(2.37651 0 0)
(2.36741 0 0)
(2.35853 0 0)
(2.34986 0 0)
(2.3414 0 0)
(2.33315 0 0)
(2.3251 0 0)
(2.31724 0 0)
(2.30958 0 0)
(2.30211 0 0)
(2.29483 0 0)
(2.28773 0 0)
(2.28081 0 0)
(2.27407 0 0)
(2.2675 0 0)
(2.2611 0 0)
(2.25486 0 0)
(2.24879 0 0)
(2.24288 0 0)
(2.23713 0 0)
(2.23153 0 0)
(2.22609 0 0)
(2.22079 0 0)
(2.21564 0 0)
(2.21064 0 0)
(2.20577 0 0)
(2.20105 0 0)
(2.19646 0 0)
(2.192 0 0)
(2.18768 0 0)
(2.18348 0 0)
(2.17941 0 0)
(2.17547 0 0)
(2.17164 0 0)
(2.16794 0 0)
(2.16436 0 0)
(2.16089 0 0)
(2.15754 0 0)
(2.1543 0 0)
(2.15117 0 0)
(2.14814 0 0)
(2.14523 0 0)
(2.14241 0 0)
(2.13971 0 0)
(2.1371 0 0)
(2.13459 0 0)
(2.13218 0 0)
(2.12987 0 0)
(2.12765 0 0)
(2.12552 0 0)
(2.12349 0 0)
(2.12154 0 0)
(2.11969 0 0)
(2.11792 0 0)
(2.11623 0 0)
(2.11463 0 0)
(2.11312 0 0)
(2.11168 0 0)
(2.11033 0 0)
(2.10906 0 0)
(2.10786 0 0)
(2.10674 0 0)
(2.1057 0 0)
(2.10473 0 0)
(2.10383 0 0)
(2.103 0 0)
(2.10225 0 0)
(2.10157 0 0)
(2.10095 0 0)
(2.1004 0 0)
(2.09992 0 0)
(2.09951 0 0)
(2.09916 0 0)
(2.09887 0 0)
(2.09864 0 0)
(2.09848 0 0)
(2.09838 0 0)
(2.09834 0 0)
(2.09836 0 0)
(2.09843 0 0)
(2.09857 0 0)
(2.09876 0 0)
(2.099 0 0)
(2.09931 0 0)
(2.09966 0 0)
(2.10007 0 0)
(2.10053 0 0)
(2.10105 0 0)
(2.10161 0 0)
(2.10223 0 0)
(2.10268 0.0300283 0)
(2.10204 0.0600505 0)
(2.10097 0.0900604 0)
(2.09947 0.120052 0)
(2.09754 0.150019 0)
(2.09518 0.179956 0)
(2.0924 0.209855 0)
(2.08919 0.239712 0)
(2.08556 0.26952 0)
(2.08149 0.299274 0)
(2.07701 0.328966 0)
(2.0721 0.358591 0)
(2.06677 0.388143 0)
(2.06101 0.417616 0)
(2.05484 0.447003 0)
(2.04825 0.4763 0)
(2.04124 0.505499 0)
(2.03381 0.534595 0)
(2.02597 0.563583 0)
(2.01772 0.592455 0)
(2.00905 0.621206 0)
(1.99998 0.649831 0)
(1.99049 0.678324 0)
(1.9806 0.706678 0)
(1.97031 0.734888 0)
(1.95962 0.762948 0)
(1.94852 0.790852 0)
(1.93703 0.818595 0)
(1.92514 0.846172 0)
(1.91286 0.873576 0)
(1.90019 0.900801 0)
(1.88714 0.927843 0)
(1.8737 0.954696 0)
(1.85987 0.981354 0)
(1.84567 1.00781 0)
(1.83109 1.03406 0)
(1.81614 1.06011 0)
(1.80081 1.08593 0)
(1.78512 1.11154 0)
(1.76907 1.13691 0)
(1.75266 1.16206 0)
(1.73588 1.18697 0)
(1.71876 1.21163 0)
(1.70128 1.23605 0)
(1.68346 1.26022 0)
(1.66529 1.28413 0)
(1.64678 1.30778 0)
(1.62794 1.33116 0)
(1.60877 1.35427 0)
(1.58926 1.37711 0)
(1.56944 1.39966 0)
(1.54929 1.42193 0)
(1.52883 1.44391 0)
(1.50806 1.46559 0)
(1.48697 1.48697 0)
(1.46559 1.50806 0)
(1.44391 1.52883 0)
(1.42193 1.54929 0)
(1.39966 1.56944 0)
(1.37711 1.58926 0)
(1.35427 1.60877 0)
(1.33116 1.62794 0)
(1.30778 1.64678 0)
(1.28413 1.66529 0)
(1.26022 1.68346 0)
(1.23605 1.70128 0)
(1.21163 1.71876 0)
(1.18697 1.73588 0)
(1.16206 1.75266 0)
(1.13691 1.76907 0)
(1.11154 1.78512 0)
(1.08593 1.80081 0)
(1.06011 1.81614 0)
(1.03406 1.83109 0)
(1.00781 1.84567 0)
(0.981354 1.85987 0)
(0.954696 1.8737 0)
(0.927843 1.88714 0)
(0.900801 1.90019 0)
(0.873576 1.91286 0)
(0.846172 1.92514 0)
(0.818595 1.93703 0)
(0.790852 1.94852 0)
(0.762948 1.95962 0)
(0.734888 1.97031 0)
(0.706678 1.9806 0)
(0.678324 1.99049 0)
(0.649831 1.99998 0)
(0.621206 2.00905 0)
(0.592455 2.01772 0)
(0.563583 2.02597 0)
(0.534595 2.03381 0)
(0.505499 2.04124 0)
(0.4763 2.04825 0)
(0.447003 2.05484 0)
(0.417616 2.06101 0)
(0.388143 2.06677 0)
(0.358591 2.0721 0)
(0.328966 2.07701 0)
(0.299274 2.08149 0)
(0.26952 2.08556 0)
(0.239712 2.08919 0)
(0.209855 2.0924 0)
(0.179956 2.09518 0)
(0.150019 2.09754 0)
(0.120052 2.09947 0)
(0.0900604 2.10097 0)
(0.0600505 2.10204 0)
(0.0300283 2.10268 0)
(0 2.10223 0)
(0 2.10161 0)
(0 2.10105 0)
(0 2.10053 0)
(0 2.10007 0)
(0 2.09966 0)
(0 2.09931 0)
(0 2.099 0)
(0 2.09876 0)
(0 2.09857 0)
(0 2.09843 0)
(0 2.09836 0)
(0 2.09834 0)
(0 2.09838 0)
(0 2.09848 0)
(0 2.09864 0)
(0 2.09887 0)
(0 2.09916 0)
(0 2.09951 0)
(0 2.09992 0)
(0 2.1004 0)
(0 2.10095 0)
(0 2.10157 0)
(0 2.10225 0)
(0 2.103 0)
(0 2.10383 0)
(0 2.10473 0)
(0 2.1057 0)
(0 2.10674 0)
(0 2.10786 0)
(0 2.10906 0)
(0 2.11033 0)
(0 2.11168 0)
(0 2.11312 0)
(0 2.11463 0)
(0 2.11623 0)
(0 2.11792 0)
(0 2.11969 0)
(0 2.12154 0)
(0 2.12349 0)
(0 2.12552 0)
(0 2.12765 0)
(0 2.12987 0)
(0 2.13218 0)
(0 2.13459 0)
(0 2.1371 0)
(0 2.13971 0)
(0 2.14241 0)
(0 2.14523 0)
(0 2.14814 0)
(0 2.15117 0)
(0 2.1543 0)
(0 2.15754 0)
(0 2.16089 0)
(0 2.16436 0)
(0 2.16794 0)
(0 2.17164 0)
(0 2.17547 0)
(0 2.17941 0)
(0 2.18348 0)
(0 2.18768 0)
(0 2.192 0)
(0 2.19646 0)
(0 2.20105 0)
(0 2.20577 0)
(0 2.21064 0)
(0 2.21564 0)
(0 2.22079 0)
(0 2.22609 0)
(0 2.23153 0)
(0 2.23713 0)
(0 2.24288 0)
(0 2.24879 0)
(0 2.25486 0)
(0 2.2611 0)
(0 2.2675 0)
(0 2.27407 0)
(0 2.28081 0)
(0 2.28773 0)
(0 2.29483 0)
(0 2.30211 0)
(0 2.30958 0)
(0 2.31724 0)
(0 2.3251 0)
(0 2.33315 0)
(0 2.3414 0)
(0 2.34986 0)
(0 2.35853 0)
(0 2.36741 0)
(0 2.37651 0)
(0 2.38584 0)
(0 2.39539 0)
(0 2.40517 0)
(0 2.41518 0)
(0 2.42544 0)
(0 2.43594 0)
(0 2.44669 0)
(0 2.4577 0)
(0 2.46896 0)
(0 2.48049 0)
(0 2.4923 0)
(0 2.50437 0)
(0 2.51673 0)
(0 2.52938 0)
(0 2.54232 0)
(0 2.55556 0)
(0 2.5691 0)
(0 2.58295 0)
(0 2.59712 0)
(0 2.61161 0)
(0 2.62643 0)
(0 2.6416 0)
(0 2.65709 0)
(0 2.67296 0)
(0 2.68914 0)
(0 2.70577 0)
(0.0388792 2.72246 0)
(0.0777505 2.72162 0)
(0.116606 2.72023 0)
(0.155438 2.71829 0)
(0.194238 2.7158 0)
(0.232998 2.71275 0)
(0.271711 2.70914 0)
(0.310368 2.70499 0)
(0.348962 2.70028 0)
(0.387485 2.69502 0)
(0.425929 2.68921 0)
(0.464286 2.68286 0)
(0.502549 2.67595 0)
(0.540709 2.6685 0)
(0.578758 2.66051 0)
(0.61669 2.65197 0)
(0.654496 2.6429 0)
(0.692169 2.63328 0)
(0.7297 2.62313 0)
(0.767082 2.61244 0)
(0.804309 2.60122 0)
(0.841371 2.58947 0)
(0.878261 2.57719 0)
(0.914973 2.56439 0)
(0.951498 2.55106 0)
(0.987828 2.53722 0)
(1.02396 2.52285 0)
(1.05988 2.50797 0)
(1.09558 2.49258 0)
(1.13106 2.47668 0)
(1.16631 2.46028 0)
(1.20133 2.44338 0)
(1.23609 2.42597 0)
(1.27061 2.40807 0)
(1.30487 2.38969 0)
(1.33886 2.37081 0)
(1.37257 2.35145 0)
(1.40601 2.33161 0)
(1.43916 2.31129 0)
(1.47202 2.29051 0)
(1.50458 2.26926 0)
(1.53683 2.24754 0)
(1.56877 2.22537 0)
(1.60038 2.20274 0)
(1.63167 2.17966 0)
(1.66263 2.15614 0)
(1.69325 2.13218 0)
(1.72352 2.10778 0)
(1.75345 2.08295 0)
(1.78301 2.0577 0)
(1.81221 2.03203 0)
(1.84104 2.00595 0)
(1.8695 1.97946 0)
(1.89757 1.95256 0)
(1.92526 1.92526 0)
(1.95256 1.89757 0)
(1.97946 1.8695 0)
(2.00595 1.84104 0)
(2.03203 1.81221 0)
(2.0577 1.78301 0)
(2.08295 1.75345 0)
(2.10778 1.72352 0)
(2.13218 1.69325 0)
(2.15614 1.66263 0)
(2.17966 1.63167 0)
(2.20274 1.60038 0)
(2.22537 1.56877 0)
(2.24754 1.53683 0)
(2.26926 1.50458 0)
(2.29051 1.47202 0)
(2.31129 1.43916 0)
(2.33161 1.40601 0)
(2.35145 1.37257 0)
(2.37081 1.33886 0)
(2.38969 1.30487 0)
(2.40807 1.27061 0)
(2.42597 1.23609 0)
(2.44338 1.20133 0)
(2.46028 1.16631 0)
(2.47668 1.13106 0)
(2.49258 1.09558 0)
(2.50797 1.05988 0)
(2.52285 1.02396 0)
(2.53722 0.987828 0)
(2.55106 0.951498 0)
(2.56439 0.914973 0)
(2.57719 0.878261 0)
(2.58947 0.841371 0)
(2.60122 0.804309 0)
(2.61244 0.767082 0)
(2.62313 0.7297 0)
(2.63328 0.692169 0)
(2.6429 0.654496 0)
(2.65197 0.61669 0)
(2.66051 0.578758 0)
(2.6685 0.540709 0)
(2.67595 0.502549 0)
(2.68286 0.464286 0)
(2.68921 0.425929 0)
(2.69502 0.387485 0)
(2.70028 0.348962 0)
(2.70499 0.310368 0)
(2.70914 0.271711 0)
(2.71275 0.232998 0)
(2.7158 0.194238 0)
(2.71829 0.155438 0)
(2.72023 0.116606 0)
(2.72162 0.0777505 0)
(2.72246 0.0388792 0)
(2.70577 0 0)
(2.68914 0 0)
(2.67296 0 0)
(2.65709 0 0)
(2.6416 0 0)
(2.62643 0 0)
(2.61161 0 0)
(2.59712 0 0)
(2.58295 0 0)
(2.5691 0 0)
(2.55556 0 0)
(2.54232 0 0)
(2.52938 0 0)
(2.51673 0 0)
(2.50437 0 0)
(2.4923 0 0)
(2.48049 0 0)
(2.46896 0 0)
(2.4577 0 0)
(2.44669 0 0)
(2.43594 0 0)
(2.42544 0 0)
(2.41518 0 0)
(2.40517 0 0)
(2.39539 0 0)
(2.38584 0 0)
(2.37651 0 0)
(2.36741 0 0)
(2.35853 0 0)
(2.34986 0 0)
(2.3414 0 0)
(2.33315 0 0)
(2.3251 0 0)
(2.31724 0 0)
(2.30958 0 0)
(2.30211 0 0)
(2.29483 0 0)
(2.28773 0 0)
(2.28081 0 0)
(2.27407 0 0)
(2.2675 0 0)
(2.2611 0 0)
(2.25486 0 0)
(2.24879 0 0)
(2.24288 0 0)
(2.23713 0 0)
(2.23153 0 0)
(2.22609 0 0)
(2.22079 0 0)
(2.21564 0 0)
(2.21064 0 0)
(2.20577 0 0)
(2.20105 0 0)
(2.19646 0 0)
(2.192 0 0)
(2.18768 0 0)
(2.18348 0 0)
(2.17941 0 0)
(2.17547 0 0)
(2.17164 0 0)
(2.16794 0 0)
(2.16436 0 0)
(2.16089 0 0)
(2.15754 0 0)
(2.1543 0 0)
(2.15117 0 0)
(2.14814 0 0)
(2.14523 0 0)
(2.14241 0 0)
(2.13971 0 0)
(2.1371 0 0)
(2.13459 0 0)
(2.13218 0 0)
(2.12987 0 0)
(2.12765 0 0)
(2.12552 0 0)
(2.12349 0 0)
(2.12154 0 0)
(2.11969 0 0)
(2.11792 0 0)
(2.11623 0 0)
(2.11463 0 0)
(2.11312 0 0)
(2.11168 0 0)
(2.11033 0 0)
(2.10906 0 0)
(2.10786 0 0)
(2.10674 0 0)
(2.1057 0 0)
(2.10473 0 0)
(2.10383 0 0)
(2.103 0 0)
(2.10225 0 0)
(2.10157 0 0)
(2.10095 0 0)
(2.1004 0 0)
(2.09992 0 0)
(2.09951 0 0)
(2.09916 0 0)
(2.09887 0 0)
(2.09864 0 0)
(2.09848 0 0)
(2.09838 0 0)
(2.09834 0 0)
(2.09836 0 0)
(2.09843 0 0)
(2.09857 0 0)
(2.09876 0 0)
(2.099 0 0)
(2.09931 0 0)
(2.09966 0 0)
(2.10007 0 0)
(2.10053 0 0)
(2.10105 0 0)
(2.10161 0 0)
(2.10223 0 0)
(2.10268 0.0300283 0)
(2.10204 0.0600505 0)
(2.10097 0.0900604 0)
(2.09947 0.120052 0)
(2.09754 0.150019 0)
(2.09518 0.179956 0)
(2.0924 0.209855 0)
(2.08919 0.239712 0)
(2.08556 0.26952 0)
(2.08149 0.299274 0)
(2.07701 0.328966 0)
(2.0721 0.358591 0)
(2.06677 0.388143 0)
(2.06101 0.417616 0)
(2.05484 0.447003 0)
(2.04825 0.4763 0)
(2.04124 0.505499 0)
(2.03381 0.534595 0)
(2.02597 0.563583 0)
(2.01772 0.592455 0)
(2.00905 0.621206 0)
(1.99998 0.649831 0)
(1.99049 0.678324 0)
(1.9806 0.706678 0)
(1.97031 0.734888 0)
(1.95962 0.762948 0)
(1.94852 0.790852 0)
(1.93703 0.818595 0)
(1.92514 0.846172 0)
(1.91286 0.873576 0)
(1.90019 0.900801 0)
(1.88714 0.927843 0)
(1.8737 0.954696 0)
(1.85987 0.981354 0)
(1.84567 1.00781 0)
(1.83109 1.03406 0)
(1.81614 1.06011 0)
(1.80081 1.08593 0)
(1.78512 1.11154 0)
(1.76907 1.13691 0)
(1.75266 1.16206 0)
(1.73588 1.18697 0)
(1.71876 1.21163 0)
(1.70128 1.23605 0)
(1.68346 1.26022 0)
(1.66529 1.28413 0)
(1.64678 1.30778 0)
(1.62794 1.33116 0)
(1.60877 1.35427 0)
(1.58926 1.37711 0)
(1.56944 1.39966 0)
(1.54929 1.42193 0)
(1.52883 1.44391 0)
(1.50806 1.46559 0)
(1.48697 1.48697 0)
(1.46559 1.50806 0)
(1.44391 1.52883 0)
(1.42193 1.54929 0)
(1.39966 1.56944 0)
(1.37711 1.58926 0)
(1.35427 1.60877 0)
(1.33116 1.62794 0)
(1.30778 1.64678 0)
(1.28413 1.66529 0)
(1.26022 1.68346 0)
(1.23605 1.70128 0)
(1.21163 1.71876 0)
(1.18697 1.73588 0)
(1.16206 1.75266 0)
(1.13691 1.76907 0)
(1.11154 1.78512 0)
(1.08593 1.80081 0)
(1.06011 1.81614 0)
(1.03406 1.83109 0)
(1.00781 1.84567 0)
(0.981354 1.85987 0)
(0.954696 1.8737 0)
(0.927843 1.88714 0)
(0.900801 1.90019 0)
(0.873576 1.91286 0)
(0.846172 1.92514 0)
(0.818595 1.93703 0)
(0.790852 1.94852 0)
(0.762948 1.95962 0)
(0.734888 1.97031 0)
(0.706678 1.9806 0)
(0.678324 1.99049 0)
(0.649831 1.99998 0)
(0.621206 2.00905 0)
(0.592455 2.01772 0)
(0.563583 2.02597 0)
(0.534595 2.03381 0)
(0.505499 2.04124 0)
(0.4763 2.04825 0)
(0.447003 2.05484 0)
(0.417616 2.06101 0)
(0.388143 2.06677 0)
(0.358591 2.0721 0)
(0.328966 2.07701 0)
(0.299274 2.08149 0)
(0.26952 2.08556 0)
(0.239712 2.08919 0)
(0.209855 2.0924 0)
(0.179956 2.09518 0)
(0.150019 2.09754 0)
(0.120052 2.09947 0)
(0.0900604 2.10097 0)
(0.0600505 2.10204 0)
(0.0300283 2.10268 0)
(0 2.10223 0)
(0 2.10161 0)
(0 2.10105 0)
(0 2.10053 0)
(0 2.10007 0)
(0 2.09966 0)
(0 2.09931 0)
(0 2.099 0)
(0 2.09876 0)
(0 2.09857 0)
(0 2.09843 0)
(0 2.09836 0)
(0 2.09834 0)
(0 2.09838 0)
(0 2.09848 0)
(0 2.09864 0)
(0 2.09887 0)
(0 2.09916 0)
(0 2.09951 0)
(0 2.09992 0)
(0 2.1004 0)
(0 2.10095 0)
(0 2.10157 0)
(0 2.10225 0)
(0 2.103 0)
(0 2.10383 0)
(0 2.10473 0)
(0 2.1057 0)
(0 2.10674 0)
(0 2.10786 0)
(0 2.10906 0)
(0 2.11033 0)
(0 2.11168 0)
(0 2.11312 0)
(0 2.11463 0)
(0 2.11623 0)
(0 2.11792 0)
(0 2.11969 0)
(0 2.12154 0)
(0 2.12349 0)
(0 2.12552 0)
(0 2.12765 0)
(0 2.12987 0)
(0 2.13218 0)
(0 2.13459 0)
(0 2.1371 0)
(0 2.13971 0)
(0 2.14241 0)
(0 2.14523 0)
(0 2.14814 0)
(0 2.15117 0)
(0 2.1543 0)
(0 2.15754 0)
(0 2.16089 0)
(0 2.16436 0)
(0 2.16794 0)
(0 2.17164 0)
(0 2.17547 0)
(0 2.17941 0)
(0 2.18348 0)
(0 2.18768 0)
(0 2.192 0)
(0 2.19646 0)
(0 2.20105 0)
(0 2.20577 0)
(0 2.21064 0)
(0 2.21564 0)
(0 2.22079 0)
(0 2.22609 0)
(0 2.23153 0)
(0 2.23713 0)
(0 2.24288 0)
(0 2.24879 0)
(0 2.25486 0)
(0 2.2611 0)
(0 2.2675 0)
(0 2.27407 0)
(0 2.28081 0)
(0 2.28773 0)
(0 2.29483 0)
(0 2.30211 0)
(0 2.30958 0)
(0 2.31724 0)
(0 2.3251 0)
(0 2.33315 0)
(0 2.3414 0)
(0 2.34986 0)
(0 2.35853 0)
(0 2.36741 0)
(0 2.37651 0)
(0 2.38584 0)
(0 2.39539 0)
(0 2.40517 0)
(0 2.41518 0)
(0 2.42544 0)
(0 2.43594 0)
(0 2.44669 0)
(0 2.4577 0)
(0 2.46896 0)
(0 2.48049 0)
(0 2.4923 0)
(0 2.50437 0)
(0 2.51673 0)
(0 2.52938 0)
(0 2.54232 0)
(0 2.55556 0)
(0 2.5691 0)
(0 2.58295 0)
(0 2.59712 0)
(0 2.61161 0)
(0 2.62643 0)
(0 2.6416 0)
(0 2.65709 0)
(0 2.67296 0)
(0 2.68914 0)
(0 2.70577 0)
(0.0388792 2.72246 0)
(0.0777505 2.72162 0)
(0.116606 2.72023 0)
(0.155438 2.71829 0)
(0.194238 2.7158 0)
(0.232998 2.71275 0)
(0.271711 2.70914 0)
(0.310368 2.70499 0)
(0.348962 2.70028 0)
(0.387485 2.69502 0)
(0.425929 2.68921 0)
(0.464286 2.68286 0)
(0.502549 2.67595 0)
(0.540709 2.6685 0)
(0.578758 2.66051 0)
(0.61669 2.65197 0)
(0.654496 2.6429 0)
(0.692169 2.63328 0)
(0.7297 2.62313 0)
(0.767082 2.61244 0)
(0.804309 2.60122 0)
(0.841371 2.58947 0)
(0.878261 2.57719 0)
(0.914973 2.56439 0)
(0.951498 2.55106 0)
(0.987828 2.53722 0)
(1.02396 2.52285 0)
(1.05988 2.50797 0)
(1.09558 2.49258 0)
(1.13106 2.47668 0)
(1.16631 2.46028 0)
(1.20133 2.44338 0)
(1.23609 2.42597 0)
(1.27061 2.40807 0)
(1.30487 2.38969 0)
(1.33886 2.37081 0)
(1.37257 2.35145 0)
(1.40601 2.33161 0)
(1.43916 2.31129 0)
(1.47202 2.29051 0)
(1.50458 2.26926 0)
(1.53683 2.24754 0)
(1.56877 2.22537 0)
(1.60038 2.20274 0)
(1.63167 2.17966 0)
(1.66263 2.15614 0)
(1.69325 2.13218 0)
(1.72352 2.10778 0)
(1.75345 2.08295 0)
(1.78301 2.0577 0)
(1.81221 2.03203 0)
(1.84104 2.00595 0)
(1.8695 1.97946 0)
(1.89757 1.95256 0)
(1.92526 1.92526 0)
(1.95256 1.89757 0)
(1.97946 1.8695 0)
(2.00595 1.84104 0)
(2.03203 1.81221 0)
(2.0577 1.78301 0)
(2.08295 1.75345 0)
(2.10778 1.72352 0)
(2.13218 1.69325 0)
(2.15614 1.66263 0)
(2.17966 1.63167 0)
(2.20274 1.60038 0)
(2.22537 1.56877 0)
(2.24754 1.53683 0)
(2.26926 1.50458 0)
(2.29051 1.47202 0)
(2.31129 1.43916 0)
(2.33161 1.40601 0)
(2.35145 1.37257 0)
(2.37081 1.33886 0)
(2.38969 1.30487 0)
(2.40807 1.27061 0)
(2.42597 1.23609 0)
(2.44338 1.20133 0)
(2.46028 1.16631 0)
(2.47668 1.13106 0)
(2.49258 1.09558 0)
(2.50797 1.05988 0)
(2.52285 1.02396 0)
(2.53722 0.987828 0)
(2.55106 0.951498 0)
(2.56439 0.914973 0)
(2.57719 0.878261 0)
(2.58947 0.841371 0)
(2.60122 0.804309 0)
(2.61244 0.767082 0)
(2.62313 0.7297 0)
(2.63328 0.692169 0)
(2.6429 0.654496 0)
(2.65197 0.61669 0)
(2.66051 0.578758 0)
(2.6685 0.540709 0)
(2.67595 0.502549 0)
(2.68286 0.464286 0)
(2.68921 0.425929 0)
(2.69502 0.387485 0)
(2.70028 0.348962 0)
(2.70499 0.310368 0)
(2.70914 0.271711 0)
(2.71275 0.232998 0)
(2.7158 0.194238 0)
(2.71829 0.155438 0)
(2.72023 0.116606 0)
(2.72162 0.0777505 0)
(2.72246 0.0388792 0)
(2.70549 0.038637 0)
(2.70467 0.0772661 0)
(2.70329 0.115879 0)
(2.70136 0.154469 0)
(2.69888 0.193027 0)
(2.69584 0.231546 0)
(2.69226 0.270018 0)
(2.68813 0.308434 0)
(2.68345 0.346788 0)
(2.67823 0.385071 0)
(2.67246 0.423276 0)
(2.66614 0.461394 0)
(2.65928 0.499418 0)
(2.65188 0.53734 0)
(2.64393 0.575153 0)
(2.63545 0.612848 0)
(2.62643 0.650418 0)
(2.61688 0.687856 0)
(2.60679 0.725154 0)
(2.59617 0.762303 0)
(2.58502 0.799297 0)
(2.57334 0.836129 0)
(2.56114 0.872789 0)
(2.54841 0.909272 0)
(2.53517 0.945569 0)
(2.52141 0.981674 0)
(2.50713 1.01758 0)
(2.49235 1.05328 0)
(2.47705 1.08876 0)
(2.46125 1.12402 0)
(2.44495 1.15905 0)
(2.42815 1.19384 0)
(2.41086 1.22839 0)
(2.39307 1.26269 0)
(2.3748 1.29674 0)
(2.35604 1.33052 0)
(2.3368 1.36402 0)
(2.31708 1.39725 0)
(2.29689 1.4302 0)
(2.27624 1.46285 0)
(2.25512 1.4952 0)
(2.23354 1.52725 0)
(2.2115 1.55899 0)
(2.18901 1.59041 0)
(2.16608 1.62151 0)
(2.1427 1.65227 0)
(2.11889 1.6827 0)
(2.09465 1.71279 0)
(2.06998 1.74252 0)
(2.04488 1.7719 0)
(2.01937 1.80092 0)
(1.99345 1.82957 0)
(1.96712 1.85785 0)
(1.94039 1.88575 0)
(1.91327 1.91327 0)
(1.88575 1.94039 0)
(1.85785 1.96712 0)
(1.82957 1.99345 0)
(1.80092 2.01937 0)
(1.7719 2.04488 0)
(1.74252 2.06998 0)
(1.71279 2.09465 0)
(1.6827 2.11889 0)
(1.65227 2.1427 0)
(1.62151 2.16608 0)
(1.59041 2.18901 0)
(1.55899 2.2115 0)
(1.52725 2.23354 0)
(1.4952 2.25512 0)
(1.46285 2.27624 0)
(1.4302 2.29689 0)
(1.39725 2.31708 0)
(1.36402 2.3368 0)
(1.33052 2.35604 0)
(1.29674 2.3748 0)
(1.26269 2.39307 0)
(1.22839 2.41086 0)
(1.19384 2.42815 0)
(1.15905 2.44495 0)
(1.12402 2.46125 0)
(1.08876 2.47705 0)
(1.05328 2.49235 0)
(1.01758 2.50713 0)
(0.981674 2.52141 0)
(0.945569 2.53517 0)
(0.909272 2.54841 0)
(0.872789 2.56114 0)
(0.836129 2.57334 0)
(0.799297 2.58502 0)
(0.762303 2.59617 0)
(0.725154 2.60679 0)
(0.687856 2.61688 0)
(0.650418 2.62643 0)
(0.612848 2.63545 0)
(0.575153 2.64393 0)
(0.53734 2.65188 0)
(0.499418 2.65928 0)
(0.461394 2.66614 0)
(0.423276 2.67246 0)
(0.385071 2.67823 0)
(0.346788 2.68345 0)
(0.308434 2.68813 0)
(0.270018 2.69226 0)
(0.231546 2.69584 0)
(0.193027 2.69888 0)
(0.154469 2.70136 0)
(0.115879 2.70329 0)
(0.0772661 2.70467 0)
(0.038637 2.70549 0)
(2.68886 0.0383995 0)
(2.68804 0.0767911 0)
(2.68667 0.115167 0)
(2.68475 0.15352 0)
(2.68228 0.191841 0)
(2.67927 0.230123 0)
(2.67571 0.268358 0)
(2.67161 0.306538 0)
(2.66696 0.344656 0)
(2.66176 0.382704 0)
(2.65603 0.420673 0)
(2.64975 0.458557 0)
(2.64293 0.496348 0)
(2.63557 0.534037 0)
(2.62768 0.571617 0)
(2.61925 0.609081 0)
(2.61029 0.64642 0)
(2.60079 0.683628 0)
(2.59076 0.720696 0)
(2.58021 0.757617 0)
(2.56913 0.794384 0)
(2.55752 0.830989 0)
(2.54539 0.867424 0)
(2.53275 0.903682 0)
(2.51958 0.939757 0)
(2.50591 0.975639 0)
(2.49172 1.01132 0)
(2.47703 1.0468 0)
(2.46183 1.08206 0)
(2.44612 1.11711 0)
(2.42992 1.15192 0)
(2.41323 1.1865 0)
(2.39604 1.22084 0)
(2.37836 1.25493 0)
(2.3602 1.28877 0)
(2.34155 1.32234 0)
(2.32243 1.35564 0)
(2.30284 1.38866 0)
(2.28277 1.4214 0)
(2.26224 1.45386 0)
(2.24125 1.48601 0)
(2.21981 1.51786 0)
(2.19791 1.54941 0)
(2.17556 1.58063 0)
(2.15276 1.61154 0)
(2.12953 1.64211 0)
(2.10587 1.67236 0)
(2.08177 1.70226 0)
(2.05725 1.73181 0)
(2.03231 1.76101 0)
(2.00696 1.78985 0)
(1.9812 1.81833 0)
(1.95503 1.84643 0)
(1.92846 1.87416 0)
(1.90151 1.90151 0)
(1.87416 1.92846 0)
(1.84643 1.95503 0)
(1.81833 1.9812 0)
(1.78985 2.00696 0)
(1.76101 2.03231 0)
(1.73181 2.05725 0)
(1.70226 2.08177 0)
(1.67236 2.10587 0)
(1.64211 2.12953 0)
(1.61154 2.15276 0)
(1.58063 2.17556 0)
(1.54941 2.19791 0)
(1.51786 2.21981 0)
(1.48601 2.24125 0)
(1.45386 2.26224 0)
(1.4214 2.28277 0)
(1.38866 2.30284 0)
(1.35564 2.32243 0)
(1.32234 2.34155 0)
(1.28877 2.3602 0)
(1.25493 2.37836 0)
(1.22084 2.39604 0)
(1.1865 2.41323 0)
(1.15192 2.42992 0)
(1.11711 2.44612 0)
(1.08206 2.46183 0)
(1.0468 2.47703 0)
(1.01132 2.49172 0)
(0.975639 2.50591 0)
(0.939757 2.51958 0)
(0.903682 2.53275 0)
(0.867424 2.54539 0)
(0.830989 2.55752 0)
(0.794384 2.56913 0)
(0.757617 2.58021 0)
(0.720696 2.59076 0)
(0.683628 2.60079 0)
(0.64642 2.61029 0)
(0.609081 2.61925 0)
(0.571617 2.62768 0)
(0.534037 2.63557 0)
(0.496348 2.64293 0)
(0.458557 2.64975 0)
(0.420674 2.65603 0)
(0.382704 2.66176 0)
(0.344656 2.66696 0)
(0.306538 2.67161 0)
(0.268358 2.67571 0)
(0.230123 2.67927 0)
(0.191841 2.68228 0)
(0.15352 2.68475 0)
(0.115167 2.68667 0)
(0.0767911 2.68804 0)
(0.0383995 2.68886 0)
(2.67269 0.0381685 0)
(2.67187 0.0763292 0)
(2.67051 0.114474 0)
(2.6686 0.152596 0)
(2.66615 0.190687 0)
(2.66316 0.228739 0)
(2.65962 0.266744 0)
(2.65554 0.304695 0)
(2.65092 0.342583 0)
(2.64576 0.380402 0)
(2.64005 0.418143 0)
(2.63381 0.455799 0)
(2.62704 0.493362 0)
(2.61972 0.530825 0)
(2.61188 0.568179 0)
(2.6035 0.605417 0)
(2.59459 0.642532 0)
(2.58515 0.679516 0)
(2.57518 0.716361 0)
(2.56469 0.75306 0)
(2.55367 0.789606 0)
(2.54214 0.825991 0)
(2.53008 0.862207 0)
(2.51751 0.898247 0)
(2.50443 0.934105 0)
(2.49084 0.969771 0)
(2.47674 1.00524 0)
(2.46213 1.0405 0)
(2.44702 1.07556 0)
(2.43141 1.11039 0)
(2.41531 1.14499 0)
(2.39871 1.17937 0)
(2.38163 1.2135 0)
(2.36406 1.24738 0)
(2.346 1.28101 0)
(2.32747 1.31438 0)
(2.30847 1.34748 0)
(2.28899 1.38031 0)
(2.26905 1.41286 0)
(2.24864 1.44511 0)
(2.22777 1.47707 0)
(2.20646 1.50874 0)
(2.18469 1.54009 0)
(2.16247 1.57113 0)
(2.13982 1.60185 0)
(2.11672 1.63224 0)
(2.0932 1.6623 0)
(2.06925 1.69202 0)
(2.04488 1.72139 0)
(2.02009 1.75042 0)
(1.99489 1.77909 0)
(1.96928 1.80739 0)
(1.94327 1.83533 0)
(1.91687 1.86289 0)
(1.89007 1.89007 0)
(1.86289 1.91687 0)
(1.83533 1.94327 0)
(1.80739 1.96928 0)
(1.77909 1.99489 0)
(1.75042 2.02009 0)
(1.72139 2.04488 0)
(1.69202 2.06925 0)
(1.6623 2.0932 0)
(1.63224 2.11672 0)
(1.60185 2.13982 0)
(1.57113 2.16247 0)
(1.54009 2.18469 0)
(1.50874 2.20646 0)
(1.47707 2.22777 0)
(1.44511 2.24864 0)
(1.41286 2.26905 0)
(1.38031 2.28899 0)
(1.34748 2.30847 0)
(1.31438 2.32747 0)
(1.28101 2.346 0)
(1.24738 2.36406 0)
(1.2135 2.38163 0)
(1.17937 2.39871 0)
(1.14499 2.41531 0)
(1.11039 2.43141 0)
(1.07556 2.44702 0)
(1.0405 2.46213 0)
(1.00524 2.47674 0)
(0.969771 2.49084 0)
(0.934105 2.50443 0)
(0.898247 2.51751 0)
(0.862207 2.53008 0)
(0.825991 2.54214 0)
(0.789606 2.55367 0)
(0.75306 2.56469 0)
(0.716361 2.57518 0)
(0.679516 2.58515 0)
(0.642532 2.59459 0)
(0.605417 2.6035 0)
(0.568179 2.61188 0)
(0.530825 2.61972 0)
(0.493362 2.62704 0)
(0.455799 2.63381 0)
(0.418143 2.64005 0)
(0.380402 2.64576 0)
(0.342583 2.65092 0)
(0.304695 2.65554 0)
(0.266744 2.65962 0)
(0.228739 2.66316 0)
(0.190687 2.66615 0)
(0.152596 2.6686 0)
(0.114474 2.67051 0)
(0.0763292 2.67187 0)
(0.0381685 2.67269 0)
(2.65682 0.0379419 0)
(2.65601 0.075876 0)
(2.65465 0.113795 0)
(2.65276 0.15169 0)
(2.65032 0.189555 0)
(2.64734 0.227381 0)
(2.64383 0.26516 0)
(2.63977 0.302885 0)
(2.63518 0.340549 0)
(2.63005 0.378143 0)
(2.62438 0.415661 0)
(2.61817 0.453093 0)
(2.61144 0.490433 0)
(2.60417 0.527673 0)
(2.59637 0.564805 0)
(2.58804 0.601822 0)
(2.57918 0.638717 0)
(2.5698 0.675481 0)
(2.55989 0.712108 0)
(2.54946 0.748589 0)
(2.53851 0.784918 0)
(2.52704 0.821086 0)
(2.51506 0.857087 0)
(2.50257 0.892914 0)
(2.48956 0.928558 0)
(2.47605 0.964013 0)
(2.46203 0.999271 0)
(2.44751 1.03433 0)
(2.43249 1.06917 0)
(2.41697 1.1038 0)
(2.40097 1.1382 0)
(2.38447 1.17236 0)
(2.36748 1.20629 0)
(2.35002 1.23998 0)
(2.33207 1.27341 0)
(2.31365 1.30658 0)
(2.29476 1.33948 0)
(2.2754 1.37211 0)
(2.25557 1.40447 0)
(2.23529 1.43653 0)
(2.21455 1.4683 0)
(2.19335 1.49978 0)
(2.17171 1.53094 0)
(2.14963 1.5618 0)
(2.12711 1.59233 0)
(2.10416 1.62255 0)
(2.08077 1.65243 0)
(2.05696 1.68197 0)
(2.03274 1.71117 0)
(2.00809 1.74002 0)
(1.98304 1.76852 0)
(1.95759 1.79666 0)
(1.93173 1.82443 0)
(1.90548 1.85183 0)
(1.87885 1.87885 0)
(1.85183 1.90548 0)
(1.82443 1.93173 0)
(1.79666 1.95759 0)
(1.76852 1.98304 0)
(1.74002 2.00809 0)
(1.71117 2.03274 0)
(1.68197 2.05696 0)
(1.65243 2.08077 0)
(1.62255 2.10416 0)
(1.59233 2.12711 0)
(1.5618 2.14963 0)
(1.53094 2.17171 0)
(1.49978 2.19335 0)
(1.4683 2.21455 0)
(1.43653 2.23529 0)
(1.40447 2.25557 0)
(1.37211 2.2754 0)
(1.33948 2.29476 0)
(1.30658 2.31365 0)
(1.27341 2.33207 0)
(1.23998 2.35002 0)
(1.20629 2.36748 0)
(1.17236 2.38447 0)
(1.1382 2.40097 0)
(1.1038 2.41697 0)
(1.06917 2.43249 0)
(1.03433 2.44751 0)
(0.999271 2.46203 0)
(0.964013 2.47605 0)
(0.928558 2.48956 0)
(0.892914 2.50257 0)
(0.857087 2.51506 0)
(0.821086 2.52704 0)
(0.784918 2.53851 0)
(0.748589 2.54946 0)
(0.712108 2.55989 0)
(0.675481 2.5698 0)
(0.638717 2.57918 0)
(0.601822 2.58804 0)
(0.564805 2.59637 0)
(0.527673 2.60417 0)
(0.490433 2.61144 0)
(0.453093 2.61817 0)
(0.415661 2.62438 0)
(0.378143 2.63005 0)
(0.340549 2.63518 0)
(0.302885 2.63977 0)
(0.26516 2.64383 0)
(0.227381 2.64734 0)
(0.189555 2.65032 0)
(0.15169 2.65276 0)
(0.113795 2.65465 0)
(0.075876 2.65601 0)
(0.0379419 2.65682 0)
(2.64133 0.0377207 0)
(2.64052 0.0754337 0)
(2.63918 0.113131 0)
(2.63729 0.150806 0)
(2.63487 0.18845 0)
(2.63191 0.226055 0)
(2.62841 0.263614 0)
(2.62438 0.30112 0)
(2.61981 0.338564 0)
(2.61471 0.375939 0)
(2.60908 0.413237 0)
(2.60291 0.450451 0)
(2.59621 0.487574 0)
(2.58899 0.524597 0)
(2.58123 0.561512 0)
(2.57295 0.598314 0)
(2.56414 0.634993 0)
(2.55481 0.671543 0)
(2.54497 0.707956 0)
(2.5346 0.744225 0)
(2.52371 0.780341 0)
(2.51231 0.816299 0)
(2.5004 0.85209 0)
(2.48798 0.887708 0)
(2.47505 0.923144 0)
(2.46161 0.958393 0)
(2.44768 0.993446 0)
(2.43324 1.0283 0)
(2.41831 1.06294 0)
(2.40288 1.09736 0)
(2.38697 1.13156 0)
(2.37057 1.16553 0)
(2.35368 1.19926 0)
(2.33632 1.23275 0)
(2.31848 1.26598 0)
(2.30016 1.29896 0)
(2.28138 1.33167 0)
(2.26213 1.36412 0)
(2.24242 1.39628 0)
(2.22226 1.42816 0)
(2.20164 1.45974 0)
(2.18057 1.49103 0)
(2.15905 1.52202 0)
(2.1371 1.55269 0)
(2.11471 1.58305 0)
(2.09189 1.61309 0)
(2.06864 1.64279 0)
(2.04497 1.67217 0)
(2.02089 1.7012 0)
(1.99639 1.72988 0)
(1.97148 1.75821 0)
(1.94618 1.78618 0)
(1.92047 1.81379 0)
(1.89438 1.84103 0)
(1.86789 1.86789 0)
(1.84103 1.89438 0)
(1.81379 1.92047 0)
(1.78618 1.94618 0)
(1.75821 1.97148 0)
(1.72988 1.99639 0)
(1.7012 2.02089 0)
(1.67217 2.04497 0)
(1.64279 2.06864 0)
(1.61309 2.09189 0)
(1.58305 2.11471 0)
(1.55269 2.1371 0)
(1.52202 2.15905 0)
(1.49103 2.18057 0)
(1.45974 2.20164 0)
(1.42816 2.22226 0)
(1.39628 2.24242 0)
(1.36412 2.26213 0)
(1.33167 2.28138 0)
(1.29896 2.30016 0)
(1.26598 2.31848 0)
(1.23275 2.33632 0)
(1.19926 2.35368 0)
(1.16553 2.37057 0)
(1.13156 2.38697 0)
(1.09736 2.40288 0)
(1.06294 2.41831 0)
(1.0283 2.43324 0)
(0.993446 2.44768 0)
(0.958393 2.46161 0)
(0.923144 2.47505 0)
(0.887708 2.48798 0)
(0.85209 2.5004 0)
(0.816299 2.51231 0)
(0.780341 2.52371 0)
(0.744225 2.5346 0)
(0.707956 2.54497 0)
(0.671543 2.55481 0)
(0.634993 2.56414 0)
(0.598314 2.57295 0)
(0.561512 2.58123 0)
(0.524597 2.58899 0)
(0.487574 2.59621 0)
(0.450451 2.60291 0)
(0.413237 2.60908 0)
(0.375939 2.61471 0)
(0.338564 2.61981 0)
(0.30112 2.62438 0)
(0.263614 2.62841 0)
(0.226055 2.63191 0)
(0.18845 2.63487 0)
(0.150806 2.63729 0)
(0.113131 2.63918 0)
(0.0754337 2.64052 0)
(0.0377207 2.64133 0)
(2.62617 0.0375041 0)
(2.62536 0.0750006 0)
(2.62402 0.112482 0)
(2.62215 0.14994 0)
(2.61974 0.187368 0)
(2.6168 0.224757 0)
(2.61332 0.262101 0)
(2.60931 0.299391 0)
(2.60477 0.33662 0)
(2.5997 0.373781 0)
(2.5941 0.410865 0)
(2.58797 0.447865 0)
(2.58131 0.484774 0)
(2.57412 0.521585 0)
(2.56641 0.558289 0)
(2.55818 0.594879 0)
(2.54942 0.631348 0)
(2.54015 0.667688 0)
(2.53035 0.703892 0)
(2.52005 0.739952 0)
(2.50922 0.775861 0)
(2.49789 0.811613 0)
(2.48604 0.847199 0)
(2.47369 0.882612 0)
(2.46084 0.917845 0)
(2.44748 0.952891 0)
(2.43362 0.987742 0)
(2.41927 1.02239 0)
(2.40442 1.05683 0)
(2.38909 1.09106 0)
(2.37327 1.12506 0)
(2.35696 1.15884 0)
(2.34017 1.19238 0)
(2.3229 1.22567 0)
(2.30517 1.25872 0)
(2.28696 1.2915 0)
(2.26828 1.32403 0)
(2.24914 1.35628 0)
(2.22955 1.38826 0)
(2.2095 1.41996 0)
(2.189 1.45136 0)
(2.16805 1.48247 0)
(2.14666 1.51328 0)
(2.12483 1.54378 0)
(2.10257 1.57396 0)
(2.07988 1.60383 0)
(2.05677 1.63336 0)
(2.03323 1.66257 0)
(2.00928 1.69143 0)
(1.98493 1.71995 0)
(1.96016 1.74812 0)
(1.935 1.77593 0)
(1.90945 1.80338 0)
(1.8835 1.83046 0)
(1.85717 1.85717 0)
(1.83046 1.8835 0)
(1.80338 1.90945 0)
(1.77593 1.935 0)
(1.74812 1.96016 0)
(1.71995 1.98493 0)
(1.69143 2.00928 0)
(1.66257 2.03323 0)
(1.63336 2.05677 0)
(1.60383 2.07988 0)
(1.57396 2.10257 0)
(1.54378 2.12483 0)
(1.51328 2.14666 0)
(1.48247 2.16805 0)
(1.45136 2.189 0)
(1.41996 2.2095 0)
(1.38826 2.22955 0)
(1.35628 2.24914 0)
(1.32403 2.26828 0)
(1.2915 2.28696 0)
(1.25872 2.30517 0)
(1.22567 2.3229 0)
(1.19238 2.34017 0)
(1.15884 2.35696 0)
(1.12506 2.37327 0)
(1.09106 2.38909 0)
(1.05683 2.40442 0)
(1.02239 2.41927 0)
(0.987742 2.43362 0)
(0.952891 2.44748 0)
(0.917845 2.46084 0)
(0.882612 2.47369 0)
(0.847199 2.48604 0)
(0.811613 2.49789 0)
(0.775861 2.50922 0)
(0.739952 2.52005 0)
(0.703892 2.53035 0)
(0.667688 2.54015 0)
(0.631348 2.54942 0)
(0.594879 2.55818 0)
(0.558289 2.56641 0)
(0.521585 2.57412 0)
(0.484774 2.58131 0)
(0.447865 2.58797 0)
(0.410865 2.5941 0)
(0.373781 2.5997 0)
(0.33662 2.60477 0)
(0.299391 2.60931 0)
(0.262101 2.61332 0)
(0.224757 2.6168 0)
(0.187368 2.61974 0)
(0.14994 2.62215 0)
(0.112482 2.62402 0)
(0.0750006 2.62536 0)
(0.0375041 2.62617 0)
(2.61135 0.0372925 0)
(2.61055 0.0745774 0)
(2.60922 0.111847 0)
(2.60736 0.149094 0)
(2.60496 0.18631 0)
(2.60203 0.223489 0)
(2.59858 0.260622 0)
(2.59459 0.297702 0)
(2.59008 0.334721 0)
(2.58503 0.371672 0)
(2.57946 0.408547 0)
(2.57336 0.445338 0)
(2.56674 0.482039 0)
(2.5596 0.518642 0)
(2.55193 0.555139 0)