/*--------------------------------*- C++ -*----------------------------------*\
| =========                 |                                                 |
| \\      /  F ield         | OpenFOAM: The Open Source CFD Toolbox           |
|  \\    /   O peration     | Version:  2312                                  |
|   \\  /    A nd           | Website:  www.openfoam.com                      |
|    \\/     M anipulation  |                                                 |
\*---------------------------------------------------------------------------*/
FoamFile
{
    version     2.0;
    format      ascii;
    arch        "LSB;label=32;scalar=64";
    class       volSymmTensorField;
    location    "70";
    object      sigma;
}
// * * * * * * * * * * * * * * * * * * * * * * * * * * * * * * * * * * * * * //

dimensions      [1 -1 -2 0 0 0 0];

internalField   nonuniform List<symmTensor> 
12870
(
(-6.87156e+07 -1.36681e+06 9.98081e-12 1.22701e+08 -3.09527e-09 -1.20304e+07)
(-6.86375e+07 -4.0993e+06 -1.75315e-09 1.22623e+08 1.51043e-09 -1.20304e+07)
(-6.84815e+07 -6.82845e+06 2.48966e-09 1.22467e+08 3.18615e-09 -1.20304e+07)
(-6.82475e+07 -9.55203e+06 8.33703e-11 1.22233e+08 -1.54539e-09 -1.20304e+07)
(-6.79359e+07 -1.22678e+07 -9.66874e-10 1.21921e+08 1.48861e-09 -1.20304e+07)
(-6.75469e+07 -1.49736e+07 2.60586e-09 1.21532e+08 2.05086e-10 -1.20304e+07)
(-6.70808e+07 -1.76672e+07 -7.22099e-10 1.21066e+08 -1.62154e-09 -1.20304e+07)
(-6.65379e+07 -2.03463e+07 1.58125e-09 1.20523e+08 1.72655e-09 -1.20304e+07)
(-6.59187e+07 -2.30089e+07 -3.7478e-10 1.19904e+08 3.07249e-09 -1.20304e+07)
(-6.52238e+07 -2.56527e+07 1.51929e-09 1.19209e+08 1.76936e-09 -1.20304e+07)
(-6.44537e+07 -2.82756e+07 1.95624e-09 1.18439e+08 -1.26965e-09 -1.20304e+07)
(-6.36089e+07 -3.08754e+07 1.86365e-09 1.17594e+08 -5.96611e-09 -1.20304e+07)
(-6.26903e+07 -3.34501e+07 -3.40997e-09 1.16676e+08 -6.15226e-10 -1.20304e+07)
(-6.16985e+07 -3.59974e+07 -8.94815e-10 1.15684e+08 -1.74671e-10 -1.20304e+07)
(-6.06344e+07 -3.85154e+07 -1.36548e-09 1.1462e+08 -1.86826e-09 -1.20304e+07)
(-5.94988e+07 -4.1002e+07 -2.73318e-09 1.13484e+08 4.14395e-09 -1.20304e+07)
(-5.82927e+07 -4.34551e+07 -3.67179e-10 1.12278e+08 1.50345e-09 -1.20304e+07)
(-5.7017e+07 -4.58728e+07 8.48155e-10 1.11003e+08 2.16479e-10 -1.20304e+07)
(-5.56728e+07 -4.82531e+07 1.24324e-09 1.09658e+08 -1.26695e-09 -1.20304e+07)
(-5.42612e+07 -5.0594e+07 4.3123e-10 1.08247e+08 -1.48635e-09 -1.20304e+07)
(-5.27833e+07 -5.28937e+07 0 1.06769e+08 0 -1.20304e+07)
(-5.12403e+07 -5.51502e+07 -1.29636e-09 1.05226e+08 1.21255e-09 -1.20304e+07)
(-4.96335e+07 -5.73617e+07 -9.77481e-10 1.03619e+08 2.93686e-09 -1.20304e+07)
(-4.79643e+07 -5.95265e+07 1.31901e-09 1.0195e+08 -1.17902e-09 -1.20304e+07)
(-4.62339e+07 -6.16427e+07 2.50015e-10 1.00219e+08 -3.20364e-09 -1.20304e+07)
(-4.44437e+07 -6.37086e+07 5.44863e-10 9.84292e+07 3.52012e-09 -1.20304e+07)
(-4.25953e+07 -6.57226e+07 2.73659e-09 9.65808e+07 -2.24291e-09 -1.20304e+07)
(-4.06902e+07 -6.76829e+07 -3.99333e-10 9.46757e+07 -3.51569e-09 -1.20304e+07)
(-3.87298e+07 -6.95881e+07 -8.26107e-10 9.27153e+07 -3.56089e-10 -1.20304e+07)
(-3.67158e+07 -7.14365e+07 -3.62896e-09 9.07014e+07 1.76571e-09 -1.20304e+07)
(-3.46499e+07 -7.32266e+07 -1.0465e-09 8.86354e+07 6.34098e-09 -1.20304e+07)
(-3.25337e+07 -7.4957e+07 1.33491e-09 8.65192e+07 -2.79263e-09 -1.20304e+07)
(-3.0369e+07 -7.66263e+07 -7.37543e-11 8.43545e+07 -1.76761e-09 -1.20304e+07)
(-2.81574e+07 -7.82331e+07 -1.4949e-09 8.21429e+07 9.6815e-10 -1.20304e+07)
(-2.59009e+07 -7.9776e+07 1.49789e-09 7.98864e+07 -9.52437e-10 -1.20304e+07)
(-2.36013e+07 -8.12539e+07 -8.58069e-12 7.75868e+07 -1.77503e-09 -1.20304e+07)
(-2.12603e+07 -8.26656e+07 1.53074e-09 7.52458e+07 -2.69028e-09 -1.20304e+07)
(-1.88801e+07 -8.40098e+07 8.42215e-11 7.28656e+07 -3.54911e-09 -1.20304e+07)
(-1.64624e+07 -8.52855e+07 -4.59235e-09 7.04479e+07 8.16007e-10 -1.20304e+07)
(-1.40092e+07 -8.64916e+07 -4.78907e-09 6.79947e+07 4.2956e-09 -1.20304e+07)
(-1.15226e+07 -8.76272e+07 1.44568e-09 6.55082e+07 9.43737e-10 -1.20304e+07)
(-9.00465e+06 -8.86913e+07 2.01056e-11 6.29902e+07 1.35382e-11 -1.20304e+07)
(-6.4573e+06 -8.96831e+07 -3.37197e-10 6.04428e+07 3.53406e-09 -1.20304e+07)
(-3.88266e+06 -9.06017e+07 1.79157e-09 5.78682e+07 -2.5241e-09 -1.20304e+07)
(-1.28284e+06 -9.14464e+07 -6.8497e-10 5.52684e+07 -5.05171e-10 -1.20304e+07)
(1.34004e+06 -9.22166e+07 -4.8824e-10 5.26455e+07 3.51637e-09 -1.20304e+07)
(3.98384e+06 -9.29115e+07 0 5.00017e+07 0 -1.20304e+07)
(6.64641e+06 -9.35307e+07 2.61432e-09 4.73391e+07 -1.86845e-09 -1.20304e+07)
(9.32557e+06 -9.40735e+07 3.95279e-09 4.46599e+07 -4.76424e-09 -1.20304e+07)
(1.20191e+07 -9.45397e+07 2.25716e-11 4.19664e+07 -4.05126e-09 -1.20304e+07)
(1.47249e+07 -9.49287e+07 -1.9723e-09 3.92606e+07 -1.73381e-09 -1.20304e+07)
(1.74407e+07 -9.52403e+07 -5.04876e-09 3.65448e+07 1.69333e-09 -1.20304e+07)
(2.01643e+07 -9.54742e+07 -1.48624e-09 3.38212e+07 2.84536e-09 -1.20304e+07)
(2.28935e+07 -9.56303e+07 -1.2554e-09 3.10921e+07 -1.20274e-09 -1.20304e+07)
(2.5626e+07 -9.57084e+07 -2.79636e-09 2.83596e+07 1.58972e-09 -1.20304e+07)
(2.83596e+07 -9.57084e+07 3.54747e-09 2.5626e+07 1.39402e-09 -1.20304e+07)
(3.10921e+07 -9.56303e+07 1.67684e-11 2.28935e+07 1.75026e-11 -1.20304e+07)
(3.38212e+07 -9.54742e+07 2.24063e-09 2.01643e+07 -2.13578e-09 -1.20304e+07)
(3.65448e+07 -9.52403e+07 -1.72928e-09 1.74407e+07 -1.91139e-09 -1.20304e+07)
(3.92606e+07 -9.49287e+07 -1.19284e-09 1.47249e+07 3.33117e-09 -1.20304e+07)
(4.19664e+07 -9.45397e+07 -1.72564e-09 1.20191e+07 3.62526e-10 -1.20304e+07)
(4.46599e+07 -9.40735e+07 2.91009e-09 9.32557e+06 -1.34004e-09 -1.20304e+07)
(4.73391e+07 -9.35307e+07 -4.08488e-10 6.64641e+06 -2.97337e-09 -1.20304e+07)
(5.00017e+07 -9.29115e+07 -2.59612e-09 3.98384e+06 4.2162e-09 -1.20304e+07)
(5.26455e+07 -9.22166e+07 5.36897e-10 1.34004e+06 7.06637e-10 -1.20304e+07)
(5.52684e+07 -9.14464e+07 -7.19345e-12 -1.28284e+06 -9.7537e-12 -1.20304e+07)
(5.78682e+07 -9.06017e+07 1.77149e-09 -3.88266e+06 -1.83958e-10 -1.20304e+07)
(6.04428e+07 -8.96831e+07 7.6857e-10 -6.4573e+06 -1.60665e-09 -1.20304e+07)
(6.29902e+07 -8.86913e+07 3.8478e-09 -9.00465e+06 -2.59824e-09 -1.20304e+07)
(6.55082e+07 -8.76272e+07 -4.48598e-09 -1.15226e+07 -1.20954e-09 -1.20304e+07)
(6.79947e+07 -8.64916e+07 -2.16724e-09 -1.40092e+07 2.36381e-09 -1.20304e+07)
(7.04479e+07 -8.52855e+07 2.64547e-09 -1.64624e+07 -1.60693e-09 -1.20304e+07)
(7.28656e+07 -8.40098e+07 -1.76246e-09 -1.88801e+07 3.09546e-09 -1.20304e+07)
(7.52458e+07 -8.26656e+07 -1.35118e-09 -2.12603e+07 7.54857e-10 -1.20304e+07)
(7.75868e+07 -8.12539e+07 2.70598e-09 -2.36013e+07 -1.50276e-09 -1.20304e+07)
(7.98864e+07 -7.9776e+07 9.52437e-10 -2.59009e+07 -1.49789e-09 -1.20304e+07)
(8.21429e+07 -7.82331e+07 -4.02957e-10 -2.81574e+07 -7.77081e-10 -1.20304e+07)
(8.43545e+07 -7.66263e+07 -1.38122e-09 -3.0369e+07 6.98164e-10 -1.20304e+07)
(8.65192e+07 -7.4957e+07 1.13654e-09 -3.25337e+07 2.3539e-09 -1.20304e+07)
(8.86354e+07 -7.32266e+07 5.11317e-12 -3.46499e+07 1.0988e-11 -1.20304e+07)
(9.07014e+07 -7.14365e+07 3.17268e-09 -3.67158e+07 -4.88983e-10 -1.20304e+07)
(9.27153e+07 -6.95881e+07 -3.51624e-09 -3.87298e+07 -3.3796e-10 -1.20304e+07)
(9.46757e+07 -6.76829e+07 9.81751e-10 -4.06902e+07 2.37016e-09 -1.20304e+07)
(9.65808e+07 -6.57226e+07 3.35988e-09 -4.25953e+07 -4.11615e-09 -1.20304e+07)
(9.84292e+07 -6.37086e+07 -2.89662e-09 -4.44437e+07 1.09104e-09 -1.20304e+07)
(1.00219e+08 -6.16427e+07 -1.4518e-09 -4.62339e+07 5.36167e-10 -1.20304e+07)
(1.0195e+08 -5.95265e+07 -2.63434e-09 -4.79643e+07 1.84584e-09 -1.20304e+07)
(1.03619e+08 -5.73617e+07 4.67216e-09 -4.96335e+07 -6.6442e-10 -1.20304e+07)
(1.05226e+08 -5.51502e+07 1.46509e-11 -5.12403e+07 4.62108e-11 -1.20304e+07)
(1.06769e+08 -5.28937e+07 -2.72147e-09 -5.27833e+07 1.69651e-09 -1.20304e+07)
(1.08247e+08 -5.0594e+07 -2.33948e-10 -5.42612e+07 -8.18322e-10 -1.20304e+07)
(1.09658e+08 -4.82531e+07 4.50806e-10 -5.56728e+07 1.66656e-09 -1.20304e+07)
(1.11003e+08 -4.58728e+07 5.99822e-09 -5.7017e+07 -1.53096e-09 -1.20304e+07)
(1.12278e+08 -4.34551e+07 -3.40994e-09 -5.82927e+07 -9.44392e-10 -1.20304e+07)
(1.13484e+08 -4.1002e+07 -6.04482e-09 -5.94988e+07 1.3354e-09 -1.20304e+07)
(1.1462e+08 -3.85154e+07 3.74648e-09 -6.06344e+07 2.7784e-09 -1.20304e+07)
(1.15684e+08 -3.59974e+07 1.35474e-09 -6.16985e+07 -1.13779e-09 -1.20304e+07)
(1.16676e+08 -3.34501e+07 -3.04608e-09 -6.26903e+07 5.49573e-10 -1.20304e+07)
(1.17594e+08 -3.08754e+07 1.66694e-09 -6.36089e+07 5.92624e-10 -1.20304e+07)
(1.18439e+08 -2.82756e+07 5.9903e-09 -6.44537e+07 -1.79025e-09 -1.20304e+07)
(1.19209e+08 -2.56527e+07 -1.52931e-09 -6.52238e+07 2.39328e-10 -1.20304e+07)
(1.19904e+08 -2.30089e+07 -4.71692e-09 -6.59187e+07 -3.24781e-10 -1.20304e+07)
(1.20523e+08 -2.03463e+07 0 -6.65379e+07 0 -1.20304e+07)
(1.21066e+08 -1.76672e+07 1.54041e-09 -6.70808e+07 -1.49478e-10 -1.20304e+07)
(1.21532e+08 -1.49736e+07 4.6281e-09 -6.75469e+07 -3.70318e-10 -1.20304e+07)
(1.21921e+08 -1.22678e+07 -1.65491e-09 -6.79359e+07 -1.61746e-09 -1.20304e+07)
(1.22233e+08 -9.55203e+06 -3.04887e-09 -6.82475e+07 1.00468e-09 -1.20304e+07)
(1.22467e+08 -6.82845e+06 4.63971e-09 -6.84815e+07 -1.71771e-10 -1.20304e+07)
(1.22623e+08 -4.0993e+06 -3.69777e-11 -6.86375e+07 -1.72606e-09 -1.20304e+07)
(1.22701e+08 -1.36681e+06 -3.09527e-09 -6.87156e+07 9.9808e-12 -1.20304e+07)
(-6.75124e+07 -1.34268e+06 -8.72768e-10 1.20526e+08 -6.23166e-12 -1.16856e+07)
(-6.74358e+07 -4.02695e+06 -1.67648e-09 1.20449e+08 -3.04147e-09 -1.16856e+07)
(-6.72824e+07 -6.70793e+06 -6.43741e-13 1.20296e+08 -2.29813e-14 -1.16856e+07)
(-6.70526e+07 -9.38344e+06 -2.31049e-10 1.20066e+08 4.50138e-09 -1.16856e+07)
(-6.67465e+07 -1.20513e+07 -1.56444e-09 1.1976e+08 -3.11175e-09 -1.16856e+07)
(-6.63644e+07 -1.47093e+07 8.81173e-10 1.19378e+08 6.93497e-11 -1.16856e+07)
(-6.59065e+07 -1.73554e+07 -2.70878e-11 1.1892e+08 -2.52151e-12 -1.16856e+07)
(-6.53732e+07 -1.99872e+07 1.90462e-11 1.18387e+08 2.0477e-12 -1.16856e+07)
(-6.47649e+07 -2.26028e+07 -1.25353e-09 1.17778e+08 2.87424e-09 -1.16856e+07)
(-6.40823e+07 -2.52e+07 1.05784e-09 1.17096e+08 -1.37197e-09 -1.16856e+07)
(-6.33257e+07 -2.77765e+07 -1.59172e-11 1.16339e+08 -2.40467e-12 -1.16856e+07)
(-6.24959e+07 -3.03305e+07 2.09555e-09 1.15509e+08 3.39311e-09 -1.16856e+07)
(-6.15935e+07 -3.28597e+07 -2.23125e-09 1.14607e+08 2.65082e-09 -1.16856e+07)
(-6.06192e+07 -3.53621e+07 -2.8456e-10 1.13633e+08 -3.11713e-09 -1.16856e+07)
(-5.95739e+07 -3.78356e+07 -2.52369e-09 1.12587e+08 -5.30152e-10 -1.16856e+07)
(-5.84583e+07 -4.02783e+07 -3.31331e-10 1.11472e+08 1.46545e-09 -1.16856e+07)
(-5.72735e+07 -4.26881e+07 7.01473e-10 1.10287e+08 -2.92184e-09 -1.16856e+07)
(-5.60203e+07 -4.50632e+07 1.21514e-09 1.09034e+08 -1.24046e-09 -1.16856e+07)
(-5.46999e+07 -4.74014e+07 -8.5028e-10 1.07713e+08 -2.30002e-10 -1.16856e+07)
(-5.33131e+07 -4.9701e+07 -1.67834e-09 1.06327e+08 -4.79816e-10 -1.16856e+07)
(-5.18613e+07 -5.19601e+07 -4.27941e-10 1.04875e+08 1.44021e-09 -1.16856e+07)
(-5.03456e+07 -5.41768e+07 -2.11595e-09 1.03359e+08 9.05288e-10 -1.16856e+07)
(-4.87672e+07 -5.63493e+07 8.28126e-10 1.01781e+08 2.75627e-10 -1.16856e+07)
(-4.71274e+07 -5.84759e+07 8.16506e-10 1.00141e+08 2.84773e-10 -1.16856e+07)
(-4.54275e+07 -6.05547e+07 7.16033e-10 9.84409e+07 -4.5367e-09 -1.16856e+07)
(-4.3669e+07 -6.25842e+07 -2.68068e-10 9.66823e+07 -1.71003e-09 -1.16856e+07)
(-4.18532e+07 -6.45626e+07 -3.24993e-10 9.48666e+07 3.10444e-09 -1.16856e+07)
(-3.99817e+07 -6.64883e+07 -3.78007e-09 9.2995e+07 6.04675e-11 -1.16856e+07)
(-3.80559e+07 -6.83599e+07 -1.39422e-09 9.10693e+07 1.03509e-09 -1.16856e+07)
(-3.60775e+07 -7.01756e+07 6.31034e-10 8.90908e+07 -1.36361e-09 -1.16856e+07)
(-3.4048e+07 -7.19342e+07 9.50129e-10 8.70614e+07 2.09928e-09 -1.16856e+07)
(-3.19692e+07 -7.3634e+07 9.02805e-10 8.49825e+07 2.1043e-09 -1.16856e+07)
(-2.98426e+07 -7.52739e+07 1.77058e-11 8.2856e+07 8.86289e-12 -1.16856e+07)
(-2.76701e+07 -7.68523e+07 6.83129e-10 8.06835e+07 -1.33818e-09 -1.16856e+07)
(-2.54534e+07 -7.8368e+07 7.19046e-10 7.84668e+07 -1.31923e-09 -1.16856e+07)
(-2.31944e+07 -7.98198e+07 -3.23674e-12 7.62077e+07 -1.79751e-12 -1.16856e+07)
(-2.08947e+07 -8.12065e+07 7.53214e-10 7.39081e+07 -1.3e-09 -1.16856e+07)
(-1.85565e+07 -8.2527e+07 -3.01057e-09 7.15698e+07 1.70772e-09 -1.16856e+07)
(-1.61815e+07 -8.37802e+07 -3.04096e-09 6.91948e+07 1.66069e-09 -1.16856e+07)
(-1.37716e+07 -8.4965e+07 1.61014e-09 6.6785e+07 -2.53707e-09 -1.16856e+07)
(-1.13289e+07 -8.60806e+07 4.56232e-09 6.43423e+07 -6.10183e-10 -1.16856e+07)
(-8.85537e+06 -8.71259e+07 0 6.18687e+07 0 -1.16856e+07)
(-6.35298e+06 -8.81002e+07 -2.83459e-10 5.93664e+07 3.46133e-09 -1.16856e+07)
(-3.82379e+06 -8.90026e+07 -8.88742e-10 5.68372e+07 1.21151e-09 -1.16856e+07)
(-1.26986e+06 -8.98324e+07 1.79001e-09 5.42832e+07 -2.41354e-09 -1.16856e+07)
(1.30673e+06 -9.0589e+07 -1.60267e-09 5.17066e+07 6.69207e-10 -1.16856e+07)
(3.90387e+06 -9.12716e+07 4.34872e-10 4.91095e+07 2.24811e-09 -1.16856e+07)
(6.51945e+06 -9.18799e+07 1.87919e-09 4.64939e+07 -2.34477e-09 -1.16856e+07)
(9.15132e+06 -9.24131e+07 -1.33436e-09 4.3862e+07 -1.10709e-09 -1.16856e+07)
(1.17974e+07 -9.28711e+07 -9.6186e-10 4.1216e+07 1.15433e-09 -1.16856e+07)
(1.44554e+07 -9.32532e+07 -1.9484e-09 3.8558e+07 -1.71281e-09 -1.16856e+07)
(1.71232e+07 -9.35593e+07 -9.20126e-10 3.58901e+07 -2.85853e-09 -1.16856e+07)
(1.97988e+07 -9.37891e+07 -1.65557e-09 3.32146e+07 5.11415e-10 -1.16856e+07)
(2.24797e+07 -9.39424e+07 -3.33609e-09 3.05336e+07 9.65199e-10 -1.16856e+07)
(2.5164e+07 -9.40191e+07 4.20807e-09 2.78494e+07 -4.29061e-09 -1.16856e+07)
(2.78494e+07 -9.40191e+07 3.36749e-09 2.5164e+07 -8.64267e-10 -1.16856e+07)
(3.05336e+07 -9.39424e+07 -6.75475e-09 2.24797e+07 1.6366e-09 -1.16856e+07)
(3.32146e+07 -9.37891e+07 -5.169e-10 1.97988e+07 1.64968e-09 -1.16856e+07)
(3.58901e+07 -9.35593e+07 -9.77505e-11 1.71232e+07 -4.58692e-09 -1.16856e+07)
(3.8558e+07 -9.32532e+07 1.14963e-09 1.44554e+07 1.30776e-09 -1.16856e+07)
(4.1216e+07 -9.28711e+07 -3.41336e-09 1.17974e+07 6.30276e-10 -1.16856e+07)
(4.3862e+07 -9.24131e+07 1.65925e-09 9.15132e+06 1.99987e-09 -1.16856e+07)
(4.64939e+07 -9.18799e+07 7.1192e-10 6.51945e+06 -3.90543e-09 -1.16856e+07)
(4.91095e+07 -9.12716e+07 1.71479e-09 3.90387e+06 -2.46638e-10 -1.16856e+07)
(5.17066e+07 -9.0589e+07 -1.86234e-09 1.30673e+06 2.51578e-09 -1.16856e+07)
(5.42832e+07 -8.98324e+07 2.05822e-09 -1.26985e+06 2.79077e-09 -1.16856e+07)
(5.68372e+07 -8.90026e+07 -4.98965e-10 -3.82379e+06 -6.9718e-10 -1.16856e+07)
(5.93664e+07 -8.81002e+07 -8.81355e-12 -6.35298e+06 -1.26939e-11 -1.16856e+07)
(6.18687e+07 -8.71259e+07 -9.61841e-10 -8.85537e+06 -1.42843e-09 -1.16856e+07)
(6.43423e+07 -8.60806e+07 -2.68142e-09 -1.13289e+07 -1.35907e-09 -1.16856e+07)
(6.6785e+07 -8.4965e+07 2.53509e-09 -1.37716e+07 -1.61327e-09 -1.16856e+07)
(6.91948e+07 -8.37802e+07 3.38401e-09 -1.61815e+07 -3.10425e-09 -1.16856e+07)
(7.15698e+07 -8.2527e+07 -3.46517e-09 -1.85565e+07 4.85444e-11 -1.16856e+07)
(7.39081e+07 -8.12065e+07 -3.05423e-09 -2.08947e+07 3.73267e-09 -1.16856e+07)
(7.62077e+07 -7.98198e+07 1.74008e-09 -2.31944e+07 3.87236e-11 -1.16856e+07)
(7.84668e+07 -7.8368e+07 3.80689e-12 -2.54534e+07 7.09171e-12 -1.16856e+07)
(8.06835e+07 -7.68523e+07 1.33478e-09 -2.76701e+07 -6.89702e-10 -1.16856e+07)
(8.2856e+07 -7.52739e+07 4.02791e-09 -2.98426e+07 -2.0228e-09 -1.16856e+07)
(8.49825e+07 -7.3634e+07 3.79211e-10 -3.19692e+07 7.8539e-10 -1.16856e+07)
(8.70614e+07 -7.19342e+07 -1.99284e-09 -3.4048e+07 2.83972e-09 -1.16856e+07)
(8.90908e+07 -7.01756e+07 3.53601e-10 -3.60775e+07 7.89141e-10 -1.16856e+07)
(9.10693e+07 -6.83599e+07 -1.03008e-09 -3.80559e+07 -2.38972e-09 -1.16856e+07)
(9.2995e+07 -6.64883e+07 -1.06106e-09 -3.99817e+07 1.36443e-09 -1.16856e+07)
(9.48666e+07 -6.45626e+07 4.57951e-12 -4.18532e+07 1.15184e-11 -1.16856e+07)
(9.66823e+07 -6.25842e+07 1.40601e-09 -4.3669e+07 -5.29594e-10 -1.16856e+07)
(9.84409e+07 -6.05547e+07 -2.99162e-10 -4.54275e+07 -8.19918e-10 -1.16856e+07)
(1.00141e+08 -5.84759e+07 -1.41934e-09 -4.71274e+07 4.92724e-10 -1.16856e+07)
(1.01781e+08 -5.63493e+07 3.11676e-09 -4.87672e+07 -1.50747e-10 -1.16856e+07)
(1.03359e+08 -5.41768e+07 1.06544e-11 -5.03456e+07 3.36052e-11 -1.16856e+07)
(1.04875e+08 -5.19601e+07 -4.07109e-09 -5.18613e+07 2.11178e-09 -1.16856e+07)
(1.06327e+08 -4.9701e+07 1.20525e-09 -5.33131e+07 -1.25006e-09 -1.16856e+07)
(1.07713e+08 -4.74014e+07 2.35924e-09 -5.46999e+07 2.96786e-09 -1.16856e+07)
(1.09034e+08 -4.50632e+07 -2.15847e-10 -5.60203e+07 -8.45679e-10 -1.16856e+07)
(1.10287e+08 -4.26881e+07 -3.32284e-09 -5.72735e+07 -9.68798e-10 -1.16856e+07)
(1.11472e+08 -4.02783e+07 3.11543e-09 -5.84583e+07 1.57426e-10 -1.16856e+07)
(1.12587e+08 -3.78356e+07 1.83104e-09 -5.95739e+07 1.40816e-09 -1.16856e+07)
(1.13633e+08 -3.53621e+07 -4.42564e-09 -6.06192e+07 8.54143e-10 -1.16856e+07)
(1.14607e+08 -3.28597e+07 0 -6.15935e+07 0 -1.16856e+07)
(1.15509e+08 -3.03305e+07 5.69428e-10 -6.24959e+07 3.43625e-09 -1.16856e+07)
(1.16339e+08 -2.77765e+07 4.4553e-09 -6.33257e+07 -6.82765e-10 -1.16856e+07)
(1.17096e+08 -2.52e+07 -1.71915e-09 -6.40823e+07 -1.4856e-09 -1.16856e+07)
(1.17778e+08 -2.26028e+07 -4.37104e-09 -6.47649e+07 1.39095e-09 -1.16856e+07)
(1.18387e+08 -1.99872e+07 1.40116e-09 -6.53732e+07 -1.02255e-09 -1.16856e+07)
(1.1892e+08 -1.73554e+07 1.41453e-09 -6.59065e+07 -1.01414e-09 -1.16856e+07)
(1.19378e+08 -1.47093e+07 1.42979e-09 -6.63644e+07 -9.82122e-10 -1.16856e+07)
(1.1976e+08 -1.20513e+07 -1.1106e-10 -6.67465e+07 -1.72591e-09 -1.16856e+07)
(1.20066e+08 -9.38344e+06 4.32017e-11 -6.70526e+07 8.63662e-10 -1.16856e+07)
(1.20296e+08 -6.70793e+06 0 -6.72824e+07 0 -1.16856e+07)
(1.20449e+08 -4.02695e+06 -3.70426e-11 -6.74358e+07 -1.72909e-09 -1.16856e+07)
(1.20526e+08 -1.34268e+06 0 -6.75124e+07 0 -1.16856e+07)
(-6.57285e+07 -1.31334e+06 1.25876e-11 1.18201e+08 -1.4558e-09 -1.12863e+07)
(-6.56535e+07 -3.93896e+06 1.12748e-11 1.18126e+08 2.41535e-13 -1.12863e+07)
(-6.55036e+07 -6.56137e+06 -3.42952e-09 1.17976e+08 -1.22486e-10 -1.12863e+07)
(-6.52788e+07 -9.17842e+06 -1.77565e-09 1.17751e+08 1.36885e-09 -1.12863e+07)
(-6.49794e+07 -1.1788e+07 2.56292e-09 1.17452e+08 1.6492e-10 -1.12863e+07)
(-6.46056e+07 -1.43879e+07 -1.46135e-09 1.17078e+08 -3.03572e-09 -1.12863e+07)
(-6.41577e+07 -1.69762e+07 -8.65074e-10 1.1663e+08 -8.05274e-11 -1.12863e+07)
(-6.3636e+07 -1.95505e+07 -1.99656e-09 1.16109e+08 2.71384e-09 -1.12863e+07)
(-6.30411e+07 -2.2109e+07 6.69352e-10 1.15514e+08 1.54829e-09 -1.12863e+07)
(-6.23733e+07 -2.46493e+07 1.72508e-09 1.14846e+08 2.3547e-10 -1.12863e+07)
(-6.16333e+07 -2.71696e+07 6.40031e-10 1.14106e+08 -4.32043e-09 -1.12863e+07)
(-6.08216e+07 -2.96678e+07 4.93938e-10 1.13294e+08 -2.86957e-09 -1.12863e+07)
(-5.99389e+07 -3.21417e+07 6.45223e-10 1.12412e+08 6.03385e-09 -1.12863e+07)
(-5.89859e+07 -3.45894e+07 -2.95527e-10 1.11459e+08 1.42565e-09 -1.12863e+07)
(-5.79634e+07 -3.70089e+07 6.06263e-10 1.10436e+08 -2.84791e-09 -1.12863e+07)
(-5.68723e+07 -3.93982e+07 1.67568e-09 1.09345e+08 3.77071e-10 -1.12863e+07)
(-5.57133e+07 -4.17554e+07 8.26227e-10 1.08186e+08 1.9836e-10 -1.12863e+07)
(-5.44875e+07 -4.40786e+07 -3.43652e-10 1.0696e+08 1.41482e-09 -1.12863e+07)
(-5.31959e+07 -4.63657e+07 -7.56064e-10 1.05669e+08 2.81184e-09 -1.12863e+07)
(-5.18395e+07 -4.86151e+07 4.11584e-09 1.04312e+08 -1.8517e-09 -1.12863e+07)
(-5.04194e+07 -5.08248e+07 2.15952e-11 1.02892e+08 6.50877e-12 -1.12863e+07)
(-4.89368e+07 -5.29931e+07 8.06687e-10 1.01409e+08 2.55755e-10 -1.12863e+07)
(-4.73929e+07 -5.51181e+07 2.91914e-09 9.98655e+07 -5.62791e-10 -1.12863e+07)
(-4.57889e+07 -5.71982e+07 3.28196e-10 9.82615e+07 1.65633e-09 -1.12863e+07)
(-4.41261e+07 -5.92316e+07 -8.08825e-10 9.65988e+07 -2.95115e-10 -1.12863e+07)
(-4.2406e+07 -6.12167e+07 -1.5871e-09 9.48786e+07 -6.04901e-10 -1.12863e+07)
(-4.06299e+07 -6.31519e+07 -5.25351e-10 9.31025e+07 1.35783e-09 -1.12863e+07)
(-3.87993e+07 -6.50356e+07 4.05209e-12 9.12719e+07 1.67844e-12 -1.12863e+07)
(-3.69156e+07 -6.68662e+07 3.08543e-09 8.93882e+07 -5.01142e-09 -1.12863e+07)
(-3.49804e+07 -6.86423e+07 1.38531e-09 8.7453e+07 -9.74592e-10 -1.12863e+07)
(-3.29953e+07 -7.03625e+07 -1.23867e-09 8.54679e+07 2.63512e-09 -1.12863e+07)
(-3.09619e+07 -7.20252e+07 -1.41052e-11 8.34345e+07 -6.81047e-12 -1.12863e+07)
(-2.88818e+07 -7.36292e+07 1.16285e-10 8.13544e+07 1.68627e-09 -1.12863e+07)
(-2.67568e+07 -7.51731e+07 -6.82148e-10 7.92294e+07 1.28622e-09 -1.12863e+07)
(-2.45885e+07 -7.66557e+07 -8.26677e-10 7.70611e+07 -2.09612e-09 -1.12863e+07)
(-2.23788e+07 -7.80758e+07 1.45761e-09 7.48514e+07 -8.55814e-10 -1.12863e+07)
(-2.01294e+07 -7.94322e+07 0 7.2602e+07 0 -1.12863e+07)
(-1.78422e+07 -8.07238e+07 1.48091e-09 7.03149e+07 8.78667e-10 -1.12863e+07)
(-1.55191e+07 -8.19496e+07 1.45486e-09 6.79917e+07 8.9154e-10 -1.12863e+07)
(-1.31619e+07 -8.31086e+07 1.53389e-09 6.56345e+07 -2.47507e-09 -1.12863e+07)
(-1.07726e+07 -8.41998e+07 1.4477e-09 6.32452e+07 9.4505e-10 -1.12863e+07)
(-8.35311e+06 -8.52222e+07 -1.63565e-09 6.08257e+07 2.40891e-09 -1.12863e+07)
(-5.90539e+06 -8.61752e+07 -1.65135e-09 5.8378e+07 2.39817e-09 -1.12863e+07)
(-3.43146e+06 -8.70579e+07 1.38195e-09 5.59041e+07 9.89046e-10 -1.12863e+07)
(-933328 -8.78696e+07 -1.54065e-09 5.34059e+07 6.72724e-10 -1.12863e+07)
(1.58696e+06 -8.86096e+07 -8.23083e-12 5.08857e+07 -6.25369e-12 -1.12863e+07)
(4.12735e+06 -8.92774e+07 2.26318e-09 4.83453e+07 -7.75728e-11 -1.12863e+07)
(6.68578e+06 -8.98723e+07 -2.50009e-09 4.57868e+07 1.72478e-09 -1.12863e+07)
(9.26015e+06 -9.0394e+07 3.71309e-09 4.32125e+07 -4.48612e-09 -1.12863e+07)
(1.18484e+07 -9.08419e+07 3.02954e-10 4.06242e+07 -1.65583e-09 -1.12863e+07)
(1.44483e+07 -9.12157e+07 -2.2497e-09 3.80243e+07 3.83757e-09 -1.12863e+07)
(1.70579e+07 -9.15151e+07 -3.34087e-10 3.54147e+07 1.661e-09 -1.12863e+07)
(1.96749e+07 -9.17399e+07 -9.84709e-10 3.27977e+07 1.07236e-09 -1.12863e+07)
(2.22973e+07 -9.18898e+07 1.00309e-09 3.01753e+07 -1.05516e-09 -1.12863e+07)
(2.4923e+07 -9.19648e+07 3.26484e-09 2.75497e+07 -8.70148e-10 -1.12863e+07)
(2.75497e+07 -9.19648e+07 -4.28841e-09 2.4923e+07 1.87116e-09 -1.12863e+07)
(3.01753e+07 -9.18898e+07 -1.05689e-09 2.22973e+07 1.00128e-09 -1.12863e+07)
(3.27977e+07 -9.17399e+07 3.31447e-09 1.96749e+07 -7.1302e-10 -1.12863e+07)
(3.54147e+07 -9.15151e+07 4.95864e-10 1.70579e+07 -1.62193e-09 -1.12863e+07)
(3.80243e+07 -9.12157e+07 1.48916e-11 1.44483e+07 1.69398e-11 -1.12863e+07)
(4.06242e+07 -9.08419e+07 5.49601e-10 1.18484e+07 6.435e-10 -1.12863e+07)
(4.32125e+07 -9.0394e+07 1.12123e-09 9.26015e+06 -9.28634e-10 -1.12863e+07)
(4.57868e+07 -8.98723e+07 -5.96888e-10 6.68578e+06 1.57951e-09 -1.12863e+07)
(4.83453e+07 -8.92774e+07 1.14787e-09 4.12736e+06 -8.95497e-10 -1.12863e+07)
(5.08857e+07 -8.86096e+07 3.47423e-09 1.58696e+06 -2.64677e-09 -1.12863e+07)
(5.34059e+07 -8.78696e+07 -1.31979e-09 -933328 3.11609e-09 -1.12863e+07)
(5.59041e+07 -8.70579e+07 -3.55897e-09 -3.43146e+06 2.53171e-09 -1.12863e+07)
(5.8378e+07 -8.61752e+07 9.8404e-10 -5.90539e+06 1.41729e-09 -1.12863e+07)
(6.08257e+07 -8.52222e+07 -9.59328e-10 -8.35311e+06 -1.4247e-09 -1.12863e+07)
(6.32452e+07 -8.41998e+07 9.43167e-10 -1.07726e+07 1.44481e-09 -1.12863e+07)
(6.56345e+07 -8.31086e+07 4.58457e-10 -1.31619e+07 7.24697e-10 -1.12863e+07)
(6.79917e+07 -8.19496e+07 -8.89739e-10 -1.55191e+07 -1.45192e-09 -1.12863e+07)
(7.03149e+07 -8.07238e+07 3.80743e-10 -1.78422e+07 -2.2114e-09 -1.12863e+07)
(7.2602e+07 -7.94322e+07 3.38032e-09 -2.01294e+07 3.96565e-11 -1.12863e+07)
(7.48514e+07 -7.80758e+07 4.14207e-10 -2.23788e+07 7.45854e-10 -1.12863e+07)
(7.70611e+07 -7.66557e+07 -4.10923e-10 -2.45885e+07 -7.65493e-10 -1.12863e+07)
(7.92294e+07 -7.51731e+07 3.9274e-10 -2.67568e+07 7.57378e-10 -1.12863e+07)
(8.13544e+07 -7.36292e+07 -7.70781e-10 -2.88818e+07 -1.53982e-09 -1.12863e+07)
(8.34345e+07 -7.20252e+07 1.87526e-09 -3.09619e+07 -2.81274e-09 -1.12863e+07)
(8.54679e+07 -7.03625e+07 2.90743e-12 -3.29953e+07 6.24805e-12 -1.12863e+07)
(8.7453e+07 -6.86423e+07 -3.98804e-09 -3.49804e+07 1.78079e-09 -1.12863e+07)
(8.93882e+07 -6.68662e+07 -2.67078e-09 -3.69156e+07 1.15975e-09 -1.12863e+07)
(9.12719e+07 -6.50356e+07 4.03031e-09 -3.87993e+07 -1.68297e-09 -1.12863e+07)
(9.31025e+07 -6.31519e+07 3.02762e-09 -4.06299e+07 -2.66064e-10 -1.12863e+07)
(9.48786e+07 -6.12167e+07 -4.0832e-09 -4.2406e+07 1.55022e-09 -1.12863e+07)
(9.65988e+07 -5.92316e+07 -1.95714e-09 -4.41261e+07 -1.11657e-09 -1.12863e+07)
(9.82615e+07 -5.71982e+07 -5.64492e-10 -4.57889e+07 -1.61852e-09 -1.12863e+07)
(9.98655e+07 -5.51181e+07 4.41062e-09 -4.73929e+07 -5.78404e-10 -1.12863e+07)
(1.01409e+08 -5.29931e+07 -5.10185e-10 -4.89368e+07 -1.60919e-09 -1.12863e+07)
(1.02892e+08 -5.08248e+07 -3.93818e-09 -5.04194e+07 2.06853e-09 -1.12863e+07)
(1.04312e+08 -4.86151e+07 4.43134e-09 -5.18395e+07 -3.8898e-10 -1.12863e+07)
(1.05669e+08 -4.63657e+07 4.7442e-12 -5.31959e+07 1.75384e-11 -1.12863e+07)
(1.0696e+08 -4.40786e+07 -3.25076e-09 -5.44875e+07 -9.62656e-10 -1.12863e+07)
(1.08186e+08 -4.17554e+07 2.63266e-12 -5.57133e+07 1.09658e-11 -1.12863e+07)
(1.09345e+08 -3.93982e+07 3.73839e-10 -5.68723e+07 1.66131e-09 -1.12863e+07)
(1.10436e+08 -3.70089e+07 1.07513e-09 -5.79634e+07 -1.96363e-09 -1.12863e+07)
(1.11459e+08 -3.45894e+07 -1.59426e-09 -5.89859e+07 -5.68261e-10 -1.12863e+07)
(1.12412e+08 -3.21417e+07 3.01431e-09 -5.99389e+07 3.08122e-10 -1.12863e+07)
(1.13294e+08 -2.96678e+07 1.57779e-09 -6.08216e+07 6.16027e-10 -1.12863e+07)
(1.14106e+08 -2.71696e+07 -2.75328e-09 -6.16333e+07 1.26737e-09 -1.12863e+07)
(1.14846e+08 -2.46493e+07 -2.30767e-10 -6.23733e+07 -1.69062e-09 -1.12863e+07)
(1.15514e+08 -2.2109e+07 -2.68232e-09 -6.30411e+07 2.0575e-09 -1.12863e+07)
(1.16109e+08 -1.95505e+07 -2.80336e-09 -6.3636e+07 1.16387e-09 -1.12863e+07)
(1.1663e+08 -1.69762e+07 1.52959e-09 -6.41577e+07 7.24521e-10 -1.12863e+07)
(1.17078e+08 -1.43879e+07 2.76825e-09 -6.46056e+07 -1.9373e-09 -1.12863e+07)
(1.17452e+08 -1.1788e+07 1.45321e-09 -6.49794e+07 -8.78616e-11 -1.12863e+07)
(1.17751e+08 -9.17842e+06 -8.60278e-11 -6.52788e+07 -1.71981e-09 -1.12863e+07)
(1.17976e+08 -6.56137e+06 0 -6.55036e+07 0 -1.12863e+07)
(1.18126e+08 -3.93896e+06 0 -6.56535e+07 0 -1.12863e+07)
(1.18201e+08 -1.31334e+06 0 -6.57285e+07 0 -1.12863e+07)
(-6.4333e+07 -1.28816e+06 -8.61947e-10 1.1607e+08 -6.1544e-12 -1.09438e+07)
(-6.42594e+07 -3.86344e+06 -4.96416e-11 1.15997e+08 2.82563e-09 -1.09438e+07)
(-6.41123e+07 -6.43557e+06 7.49669e-10 1.1585e+08 2.85462e-09 -1.09438e+07)
(-6.38919e+07 -9.00244e+06 2.75934e-10 1.15629e+08 -5.64535e-09 -1.09438e+07)
(-6.35982e+07 -1.1562e+07 1.88856e-09 1.15335e+08 -2.71036e-09 -1.09438e+07)
(-6.32315e+07 -1.41121e+07 -2.1468e-09 1.14969e+08 5.50061e-09 -1.09438e+07)
(-6.27922e+07 -1.66507e+07 -6.41956e-12 1.14529e+08 -5.97582e-13 -1.09438e+07)
(-6.22806e+07 -1.91757e+07 2.01173e-09 1.14018e+08 -2.62605e-09 -1.09438e+07)
(-6.1697e+07 -2.16851e+07 3.16153e-10 1.13434e+08 -2.80843e-09 -1.09438e+07)
(-6.10421e+07 -2.41767e+07 8.45246e-10 1.12779e+08 1.15374e-10 -1.09438e+07)
(-6.03163e+07 -2.66487e+07 2.93079e-09 1.12054e+08 3.30088e-09 -1.09438e+07)
(-5.95201e+07 -2.90989e+07 -1.67049e-09 1.11257e+08 -2.76821e-10 -1.09438e+07)
(-5.86544e+07 -3.15254e+07 -4.91056e-10 1.10392e+08 2.78308e-09 -1.09438e+07)
(-5.77197e+07 -3.39262e+07 -2.13765e-11 1.09457e+08 -4.17275e-12 -1.09438e+07)
(-5.67168e+07 -3.62993e+07 -2.51913e-10 1.08454e+08 -2.94065e-09 -1.09438e+07)
(-5.56465e+07 -3.86429e+07 0 1.07384e+08 0 -1.09438e+07)
(-5.45098e+07 -4.09548e+07 -8.38153e-10 1.06247e+08 -2.01223e-10 -1.09438e+07)
(-5.33075e+07 -4.32334e+07 0 1.05045e+08 0 -1.09438e+07)
(-5.20406e+07 -4.54768e+07 3.08936e-09 1.03778e+08 -5.01955e-09 -1.09438e+07)
(-5.07102e+07 -4.7683e+07 1.64045e-09 1.02447e+08 4.68982e-10 -1.09438e+07)
(-4.93174e+07 -4.98503e+07 -3.28783e-09 1.01055e+08 4.91228e-09 -1.09438e+07)
(-4.78632e+07 -5.1977e+07 8.29087e-10 9.96004e+07 -2.70182e-09 -1.09438e+07)
(-4.63488e+07 -5.40613e+07 -1.61505e-09 9.80861e+07 -5.37541e-10 -1.09438e+07)
(-4.47756e+07 -5.61015e+07 -2.67521e-09 9.65129e+07 5.05295e-09 -1.09438e+07)
(-4.31448e+07 -5.8096e+07 7.89292e-10 9.4882e+07 2.87988e-10 -1.09438e+07)
(-4.14576e+07 -6.0043e+07 1.80778e-09 9.31949e+07 -2.33534e-09 -1.09438e+07)
(-3.97156e+07 -6.19411e+07 7.86737e-10 9.14528e+07 3.12792e-10 -1.09438e+07)
(-3.792e+07 -6.37887e+07 1.56438e-09 8.96573e+07 6.47988e-10 -1.09438e+07)
(-3.60725e+07 -6.55842e+07 -7.91564e-10 8.78097e+07 -3.41199e-10 -1.09438e+07)
(-3.41744e+07 -6.73263e+07 1.39922e-11 8.59116e+07 6.26967e-12 -1.09438e+07)
(-3.22273e+07 -6.90134e+07 -1.18243e-09 8.39646e+07 2.56681e-09 -1.09438e+07)
(-3.02329e+07 -7.06442e+07 -5.80598e-12 8.19701e+07 -2.80331e-12 -1.09438e+07)
(-2.81927e+07 -7.22175e+07 1.94762e-11 7.99299e+07 9.74906e-12 -1.09438e+07)
(-2.61084e+07 -7.37318e+07 -2.06221e-09 7.78457e+07 2.11405e-09 -1.09438e+07)
(-2.39817e+07 -7.5186e+07 2.0865e-09 7.5719e+07 -2.08743e-09 -1.09438e+07)
(-2.18144e+07 -7.65789e+07 1.38157e-09 7.35516e+07 -2.46534e-09 -1.09438e+07)
(-1.96081e+07 -7.79093e+07 1.39775e-09 7.13454e+07 -2.45621e-09 -1.09438e+07)
(-1.73648e+07 -7.91761e+07 5.54478e-12 6.91021e+07 3.28986e-12 -1.09438e+07)
(-1.50862e+07 -8.03784e+07 -4.41004e-09 6.68235e+07 3.92645e-09 -1.09438e+07)
(-1.27742e+07 -8.15151e+07 1.49621e-09 6.45115e+07 -2.39754e-09 -1.09438e+07)
(-1.04307e+07 -8.25854e+07 1.41429e-10 6.2168e+07 -3.28257e-09 -1.09438e+07)
(-8.0576e+06 -8.35883e+07 -1.58748e-09 5.97949e+07 2.33807e-09 -1.09438e+07)
(-5.65682e+06 -8.4523e+07 0 5.73941e+07 0 -1.09438e+07)
(-3.23032e+06 -8.53888e+07 -2.58927e-10 5.49676e+07 3.28993e-09 -1.09438e+07)
(-780086 -8.61849e+07 -5.1888e-12 5.25173e+07 -3.82677e-12 -1.09438e+07)
(1.69188e+06 -8.69107e+07 5.10121e-09 5.00454e+07 3.26632e-10 -1.09438e+07)
(4.18357e+06 -8.75657e+07 -1.73308e-09 4.75537e+07 2.23228e-09 -1.09438e+07)
(6.69294e+06 -8.81492e+07 1.31343e-09 4.50443e+07 1.05843e-09 -1.09438e+07)
(9.21795e+06 -8.86608e+07 1.31991e-09 4.25193e+07 1.0951e-09 -1.09438e+07)
(1.17565e+07 -8.91002e+07 -1.29248e-09 3.99807e+07 -1.10388e-09 -1.09438e+07)