# Time    Stress Errors (l1, l2, lInfinity) for each component (XX XY XZ YY YZ ZZ)
1 1738.0235491 3316.59002204 32888.4755501 725.992667846 1405.80784971 11376.6068087 1194.59342038 2105.79645412 18279.0149266 1733.80098281 3322.22821359 34491.7441956 1204.42147386 2120.02475874 17930.4631719 2904.24892914 5401.7993291 52703.1610606
