/*--------------------------------*- C++ -*----------------------------------*\
| =========                 |                                                 |
| \\      /  F ield         | OpenFOAM: The Open Source CFD Toolbox           |
|  \\    /   O peration     | Version:  2312                                  |
|   \\  /    A nd           | Website:  www.openfoam.com                      |
|    \\/     M anipulation  |                                                 |
\*---------------------------------------------------------------------------*/
FoamFile
{
    version     2.0;
    format      ascii;
    arch        "LSB;label=32;scalar=64";
    class       volVectorField;
    location    "10";
    object      D;
}
// * * * * * * * * * * * * * * * * * * * * * * * * * * * * * * * * * * * * * //

dimensions      [0 1 0 0 0 0 0];

internalField   nonuniform List<vector> 
12870
(
(0.24966 0.0017826 0)
(0.249609 0.00534743 0)
(0.249507 0.00891117 0)
(0.249355 0.0124731 0)
(0.249151 0.0160325 0)
(0.248897 0.0195886 0)
(0.248592 0.0231407 0)
(0.248236 0.0266881 0)
(0.247829 0.0302301 0)
(0.247372 0.0337659 0)
(0.246865 0.0372948 0)
(0.246307 0.0408161 0)
(0.245699 0.0443291 0)
(0.245041 0.047833 0)
(0.244333 0.0513272 0)
(0.243576 0.0548109 0)
(0.242768 0.0582834 0)
(0.241911 0.0617441 0)
(0.241005 0.0651922 0)
(0.240049 0.068627 0)
(0.239045 0.0720477 0)
(0.237992 0.0754538 0)
(0.23689 0.0788445 0)
(0.23574 0.0822192 0)
(0.234542 0.085577 0)
(0.233296 0.0889174 0)
(0.232002 0.0922397 0)
(0.230662 0.0955432 0)
(0.229274 0.0988272 0)
(0.227839 0.102091 0)
(0.226358 0.105334 0)
(0.224831 0.108556 0)
(0.223258 0.111755 0)
(0.221639 0.114932 0)
(0.219976 0.118085 0)
(0.218267 0.121214 0)
(0.216514 0.124318 0)
(0.214717 0.127397 0)
(0.212876 0.13045 0)
(0.210991 0.133477 0)
(0.209064 0.136476 0)
(0.207093 0.139447 0)
(0.205081 0.14239 0)
(0.203027 0.145304 0)
(0.200931 0.148189 0)
(0.198795 0.151043 0)
(0.196618 0.153866 0)
(0.194401 0.156658 0)
(0.192144 0.159418 0)
(0.189848 0.162145 0)
(0.187513 0.16484 0)
(0.18514 0.1675 0)
(0.182729 0.170127 0)
(0.180281 0.172719 0)
(0.177797 0.175276 0)
(0.175276 0.177797 0)
(0.172719 0.180281 0)
(0.170127 0.182729 0)
(0.1675 0.18514 0)
(0.16484 0.187513 0)
(0.162145 0.189848 0)
(0.159418 0.192144 0)
(0.156658 0.194401 0)
(0.153866 0.196618 0)
(0.151043 0.198795 0)
(0.148189 0.200931 0)
(0.145304 0.203027 0)
(0.14239 0.205081 0)
(0.139447 0.207093 0)
(0.136476 0.209064 0)
(0.133477 0.210991 0)
(0.13045 0.212876 0)
(0.127397 0.214717 0)
(0.124318 0.216514 0)
(0.121214 0.218267 0)
(0.118085 0.219976 0)
(0.114932 0.221639 0)
(0.111755 0.223258 0)
(0.108556 0.224831 0)
(0.105334 0.226358 0)
(0.102091 0.227839 0)
(0.0988272 0.229274 0)
(0.0955432 0.230662 0)
(0.0922397 0.232002 0)
(0.0889174 0.233296 0)
(0.085577 0.234542 0)
(0.0822192 0.23574 0)
(0.0788445 0.23689 0)
(0.0754538 0.237992 0)
(0.0720477 0.239045 0)
(0.068627 0.240049 0)
(0.0651922 0.241005 0)
(0.0617441 0.241911 0)
(0.0582834 0.242768 0)
(0.0548109 0.243576 0)
(0.0513272 0.244333 0)
(0.047833 0.245041 0)
(0.0443291 0.245699 0)
(0.0408161 0.246307 0)
(0.0372948 0.246865 0)
(0.0337659 0.247372 0)
(0.0302301 0.247829 0)
(0.0266881 0.248236 0)
(0.0231407 0.248592 0)
(0.0195886 0.248897 0)
(0.0160325 0.249151 0)
(0.0124731 0.249355 0)
(0.00891117 0.249507 0)
(0.00534743 0.249609 0)
(0.0017826 0.24966 0)
(0.247307 0.0017658 0)
(0.247256 0.00529703 0)
(0.247155 0.00882718 0)
(0.247004 0.0123555 0)
(0.246803 0.0158814 0)
(0.246551 0.019404 0)
(0.246248 0.0229226 0)
(0.245896 0.0264366 0)
(0.245493 0.0299451 0)
(0.245041 0.0334476 0)
(0.244538 0.0369432 0)
(0.243986 0.0404314 0)
(0.243384 0.0439112 0)
(0.242732 0.0473821 0)
(0.24203 0.0508434 0)
(0.24128 0.0542943 0)
(0.24048 0.0577341 0)
(0.239631 0.0611621 0)
(0.238733 0.0645777 0)
(0.237787 0.0679801 0)
(0.236792 0.0713686 0)
(0.235748 0.0747426 0)
(0.234657 0.0781014 0)
(0.233518 0.0814442 0)
(0.232331 0.0847704 0)
(0.231097 0.0880793 0)
(0.229816 0.0913703 0)
(0.228487 0.0946426 0)
(0.227113 0.0978956 0)
(0.225692 0.101129 0)
(0.224225 0.104341 0)
(0.222712 0.107532 0)
(0.221154 0.110702 0)
(0.21955 0.113848 0)
(0.217902 0.116972 0)
(0.21621 0.120071 0)
(0.214473 0.123146 0)
(0.212693 0.126196 0)
(0.210869 0.129221 0)
(0.209002 0.132219 0)
(0.207093 0.13519 0)
(0.205141 0.138133 0)
(0.203148 0.141048 0)
(0.201113 0.143935 0)
(0.199037 0.146792 0)
(0.196921 0.149619 0)
(0.194765 0.152416 0)
(0.192568 0.155181 0)
(0.190333 0.157915 0)
(0.188058 0.160617 0)
(0.185746 0.163286 0)
(0.183395 0.165922 0)
(0.181007 0.168524 0)
(0.178582 0.171091 0)
(0.176121 0.173624 0)
(0.173624 0.176121 0)
(0.171091 0.178582 0)
(0.168524 0.181007 0)
(0.165922 0.183395 0)
(0.163286 0.185746 0)
(0.160617 0.188058 0)
(0.157915 0.190333 0)
(0.155181 0.192568 0)
(0.152416 0.194765 0)
(0.149619 0.196921 0)
(0.146792 0.199037 0)
(0.143935 0.201113 0)
(0.141048 0.203148 0)
(0.138133 0.205141 0)
(0.13519 0.207093 0)
(0.132219 0.209002 0)
(0.129221 0.210869 0)
(0.126196 0.212693 0)
(0.123146 0.214473 0)
(0.120071 0.21621 0)
(0.116972 0.217902 0)
(0.113848 0.21955 0)
(0.110702 0.221154 0)
(0.107532 0.222712 0)
(0.104341 0.224225 0)
(0.101129 0.225692 0)
(0.0978956 0.227113 0)
(0.0946426 0.228487 0)
(0.0913703 0.229816 0)
(0.0880793 0.231097 0)
(0.0847704 0.232331 0)
(0.0814442 0.233518 0)
(0.0781014 0.234657 0)
(0.0747426 0.235748 0)
(0.0713686 0.236792 0)
(0.0679801 0.237787 0)
(0.0645777 0.238733 0)
(0.0611621 0.239631 0)
(0.0577341 0.24048 0)
(0.0542943 0.24128 0)
(0.0508434 0.24203 0)
(0.0473821 0.242732 0)
(0.0439112 0.243384 0)
(0.0404314 0.243986 0)
(0.0369432 0.244538 0)
(0.0334476 0.245041 0)
(0.0299451 0.245493 0)
(0.0264366 0.245896 0)
(0.0229226 0.246248 0)
(0.019404 0.246551 0)
(0.0158814 0.246803 0)
(0.0123555 0.247004 0)
(0.00882718 0.247155 0)
(0.00529703 0.247256 0)
(0.0017658 0.247307 0)
(0.245068 0.00174981 0)
(0.245018 0.00524907 0)
(0.244918 0.00874726 0)
(0.244768 0.0122437 0)
(0.244568 0.0157376 0)
(0.244319 0.0192283 0)
(0.244019 0.0227151 0)
(0.24367 0.0261972 0)
(0.243271 0.029674 0)
(0.242822 0.0331448 0)
(0.242324 0.0366088 0)
(0.241777 0.0400653 0)
(0.24118 0.0435137 0)
(0.240534 0.0469532 0)
(0.239839 0.0503831 0)
(0.239095 0.0538027 0)
(0.238303 0.0572114 0)
(0.237461 0.0606084 0)
(0.236572 0.063993 0)
(0.235634 0.0673646 0)
(0.234648 0.0707225 0)
(0.233614 0.0740659 0)
(0.232533 0.0773943 0)
(0.231404 0.0807068 0)
(0.230228 0.0840029 0)
(0.229005 0.0872819 0)
(0.227735 0.0905431 0)
(0.226419 0.0937858 0)
(0.225057 0.0970093 0)
(0.223648 0.100213 0)
(0.222195 0.103397 0)
(0.220695 0.106559 0)
(0.219151 0.109699 0)
(0.217563 0.112818 0)
(0.215929 0.115913 0)
(0.214252 0.118984 0)
(0.212531 0.122032 0)
(0.210767 0.125054 0)
(0.20896 0.128051 0)
(0.20711 0.131022 0)
(0.205218 0.133966 0)
(0.203284 0.136882 0)
(0.201309 0.139771 0)
(0.199292 0.142632 0)
(0.197235 0.145463 0)
(0.195138 0.148264 0)
(0.193001 0.151036 0)
(0.190825 0.153776 0)
(0.188609 0.156486 0)
(0.186356 0.159163 0)
(0.184064 0.161808 0)
(0.181735 0.16442 0)
(0.179368 0.166998 0)
(0.176965 0.169542 0)
(0.174526 0.172052 0)
(0.172052 0.174526 0)
(0.169542 0.176965 0)
(0.166998 0.179368 0)
(0.16442 0.181735 0)
(0.161808 0.184064 0)
(0.159163 0.186356 0)
(0.156486 0.188609 0)
(0.153776 0.190825 0)
(0.151036 0.193001 0)
(0.148264 0.195138 0)
(0.145463 0.197235 0)
(0.142632 0.199292 0)
(0.139771 0.201309 0)
(0.136882 0.203284 0)
(0.133966 0.205218 0)
(0.131022 0.20711 0)
(0.128051 0.20896 0)
(0.125054 0.210767 0)
(0.122032 0.212531 0)
(0.118984 0.214252 0)
(0.115913 0.215929 0)
(0.112818 0.217563 0)
(0.109699 0.219151 0)
(0.106559 0.220695 0)
(0.103397 0.222195 0)
(0.100213 0.223648 0)
(0.0970093 0.225057 0)
(0.0937858 0.226419 0)
(0.0905431 0.227735 0)
(0.0872819 0.229005 0)
(0.0840029 0.230228 0)
(0.0807068 0.231404 0)
(0.0773943 0.232533 0)
(0.0740659 0.233614 0)
(0.0707225 0.234648 0)
(0.0673646 0.235634 0)
(0.063993 0.236572 0)
(0.0606084 0.237461 0)
(0.0572114 0.238303 0)
(0.0538027 0.239095 0)
(0.0503831 0.239839 0)
(0.0469532 0.240534 0)
(0.0435137 0.24118 0)
(0.0400653 0.241777 0)
(0.0366088 0.242324 0)
(0.0331448 0.242822 0)
(0.029674 0.243271 0)
(0.0261972 0.24367 0)
(0.0227151 0.244019 0)
(0.0192283 0.244319 0)
(0.0157376 0.244568 0)
(0.0122437 0.244768 0)
(0.00874726 0.244918 0)
(0.00524907 0.245018 0)
(0.00174981 0.245068 0)
(0.242878 0.00173418 0)
(0.242829 0.00520218 0)
(0.24273 0.00866912 0)
(0.242581 0.0121343 0)
(0.242383 0.015597 0)
(0.242136 0.0190565 0)
(0.241839 0.0225121 0)
(0.241493 0.0259632 0)
(0.241098 0.0294089 0)
(0.240653 0.0328487 0)
(0.240159 0.0362817 0)
(0.239617 0.0397074 0)
(0.239025 0.0431249 0)
(0.238385 0.0465337 0)
(0.237697 0.049933 0)
(0.236959 0.0533221 0)
(0.236174 0.0567003 0)
(0.23534 0.0600669 0)
(0.234458 0.0634214 0)
(0.233529 0.0667628 0)
(0.232552 0.0700907 0)
(0.231527 0.0734043 0)
(0.230455 0.0767029 0)
(0.229336 0.0799858 0)
(0.228171 0.0832525 0)
(0.226959 0.0865021 0)
(0.2257 0.0897342 0)
(0.224396 0.0929479 0)
(0.223046 0.0961427 0)
(0.22165 0.0993179 0)
(0.22021 0.102473 0)
(0.218724 0.105607 0)
(0.217194 0.108719 0)
(0.215619 0.11181 0)
(0.214 0.114877 0)
(0.212338 0.117921 0)
(0.210633 0.120941 0)
(0.208884 0.123937 0)
(0.207093 0.126907 0)
(0.20526 0.129851 0)
(0.203385 0.132769 0)
(0.201468 0.13566 0)
(0.19951 0.138523 0)
(0.197512 0.141357 0)
(0.195473 0.144163 0)
(0.193395 0.14694 0)
(0.191277 0.149686 0)
(0.18912 0.152403 0)
(0.186925 0.155088 0)
(0.184691 0.157741 0)
(0.18242 0.160362 0)
(0.180111 0.162951 0)
(0.177766 0.165506 0)
(0.175384 0.168027 0)
(0.172967 0.170515 0)
(0.170515 0.172967 0)
(0.168027 0.175384 0)
(0.165506 0.177766 0)
(0.162951 0.180111 0)
(0.160362 0.18242 0)
(0.157741 0.184691 0)
(0.155088 0.186925 0)
(0.152403 0.18912 0)
(0.149686 0.191277 0)
(0.14694 0.193395 0)
(0.144163 0.195473 0)
(0.141357 0.197512 0)
(0.138523 0.19951 0)
(0.13566 0.201468 0)
(0.132769 0.203385 0)
(0.129851 0.20526 0)
(0.126907 0.207093 0)
(0.123937 0.208884 0)
(0.120941 0.210633 0)
(0.117921 0.212338 0)
(0.114877 0.214 0)
(0.11181 0.215619 0)
(0.108719 0.217194 0)
(0.105607 0.218724 0)
(0.102473 0.22021 0)
(0.0993179 0.22165 0)
(0.0961427 0.223046 0)
(0.0929479 0.224396 0)
(0.0897342 0.2257 0)
(0.0865021 0.226959 0)
(0.0832525 0.228171 0)
(0.0799858 0.229336 0)
(0.0767029 0.230455 0)
(0.0734043 0.231527 0)
(0.0700907 0.232552 0)
(0.0667628 0.233529 0)
(0.0634214 0.234458 0)
(0.0600669 0.23534 0)
(0.0567003 0.236174 0)
(0.0533221 0.236959 0)
(0.049933 0.237697 0)
(0.0465337 0.238385 0)
(0.0431249 0.239025 0)
(0.0397074 0.239617 0)
(0.0362817 0.240159 0)
(0.0328487 0.240653 0)
(0.0294089 0.241098 0)
(0.0259632 0.241493 0)
(0.0225121 0.241839 0)
(0.0190565 0.242136 0)
(0.015597 0.242383 0)
(0.0121343 0.242581 0)
(0.00866912 0.24273 0)
(0.00520218 0.242829 0)
(0.00173418 0.242878 0)
(0.240769 0.00171911 0)
(0.240719 0.00515699 0)
(0.240621 0.00859381 0)
(0.240474 0.0120289 0)
(0.240278 0.0154615 0)
(0.240032 0.018891 0)
(0.239738 0.0223166 0)
(0.239395 0.0257376 0)
(0.239003 0.0291534 0)
(0.238562 0.0325633 0)
(0.238073 0.0359665 0)
(0.237535 0.0393624 0)
(0.236949 0.0427503 0)
(0.236314 0.0461295 0)
(0.235632 0.0494992 0)
(0.234901 0.0528589 0)
(0.234122 0.0562077 0)
(0.233296 0.0595451 0)
(0.232421 0.0628704 0)
(0.2315 0.0661828 0)
(0.230531 0.0694818 0)
(0.229516 0.0727666 0)
(0.228453 0.0760365 0)
(0.227344 0.079291 0)
(0.226189 0.0825292 0)
(0.224987 0.0857507 0)
(0.22374 0.0889546 0)
(0.222447 0.0921405 0)
(0.221108 0.0953075 0)
(0.219725 0.0984551 0)
(0.218297 0.101583 0)
(0.216824 0.104689 0)
(0.215307 0.107775 0)
(0.213746 0.110838 0)
(0.212141 0.113879 0)
(0.210494 0.116897 0)
(0.208803 0.119891 0)
(0.20707 0.12286 0)
(0.205294 0.125804 0)
(0.203477 0.128723 0)
(0.201618 0.131615 0)
(0.199718 0.134481 0)
(0.197777 0.137319 0)
(0.195796 0.140129 0)
(0.193775 0.142911 0)
(0.191715 0.145663 0)
(0.189615 0.148386 0)
(0.187477 0.151079 0)
(0.185301 0.15374 0)
(0.183086 0.156371 0)
(0.180835 0.158969 0)
(0.178546 0.161535 0)
(0.176222 0.164068 0)
(0.173861 0.166568 0)
(0.171465 0.169033 0)
(0.169033 0.171465 0)
(0.166568 0.173861 0)
(0.164068 0.176222 0)
(0.161535 0.178546 0)
(0.158969 0.180835 0)
(0.156371 0.183086 0)
(0.15374 0.185301 0)
(0.151079 0.187477 0)
(0.148386 0.189615 0)
(0.145663 0.191715 0)
(0.142911 0.193775 0)
(0.140129 0.195796 0)
(0.137319 0.197777 0)
(0.134481 0.199718 0)
(0.131615 0.201618 0)
(0.128723 0.203477 0)
(0.125804 0.205294 0)
(0.12286 0.20707 0)
(0.119891 0.208803 0)
(0.116897 0.210494 0)
(0.113879 0.212141 0)
(0.110838 0.213746 0)
(0.107775 0.215307 0)
(0.104689 0.216824 0)
(0.101583 0.218297 0)
(0.0984551 0.219725 0)
(0.0953075 0.221108 0)
(0.0921405 0.222447 0)
(0.0889546 0.22374 0)
(0.0857507 0.224987 0)
(0.0825292 0.226189 0)
(0.079291 0.227344 0)
(0.0760365 0.228453 0)
(0.0727666 0.229516 0)
(0.0694818 0.230531 0)
(0.0661828 0.2315 0)
(0.0628704 0.232421 0)
(0.0595451 0.233296 0)
(0.0562077 0.234122 0)
(0.0528589 0.234901 0)
(0.0494992 0.235632 0)
(0.0461295 0.236314 0)
(0.0427503 0.236949 0)
(0.0393624 0.237535 0)
(0.0359665 0.238073 0)
(0.0325633 0.238562 0)
(0.0291534 0.239003 0)
(0.0257376 0.239395 0)
(0.0223166 0.239738 0)
(0.018891 0.240032 0)
(0.0154615 0.240278 0)
(0.0120289 0.240474 0)
(0.00859381 0.240621 0)
(0.00515699 0.240719 0)
(0.00171911 0.240769 0)
(0.238719 0.00170448 0)
(0.23867 0.00511308 0)
(0.238572 0.00852064 0)
(0.238427 0.0119265 0)
(0.238232 0.0153299 0)
(0.237989 0.0187301 0)
(0.237697 0.0221266 0)
(0.237357 0.0255185 0)
(0.236968 0.0289052 0)
(0.236531 0.0322861 0)
(0.236046 0.0356603 0)
(0.235513 0.0390273 0)
(0.234932 0.0423863 0)
(0.234302 0.0457367 0)
(0.233625 0.0490777 0)
(0.232901 0.0524088 0)
(0.232129 0.0557292 0)
(0.231309 0.0590381 0)
(0.230443 0.0623351 0)
(0.229529 0.0656193 0)
(0.228569 0.0688902 0)
(0.227562 0.072147 0)
(0.226508 0.0753891 0)
(0.225408 0.0786159 0)
(0.224263 0.0818266 0)
(0.223072 0.0850206 0)
(0.221835 0.0881973 0)
(0.220553 0.091356 0)
(0.219226 0.094496 0)
(0.217854 0.0976168 0)
(0.216438 0.100718 0)
(0.214978 0.103798 0)
(0.213474 0.106857 0)
(0.211926 0.109895 0)
(0.210335 0.11291 0)
(0.208701 0.115902 0)
(0.207025 0.11887 0)
(0.205307 0.121814 0)
(0.203546 0.124733 0)
(0.201744 0.127627 0)
(0.199901 0.130495 0)
(0.198018 0.133336 0)
(0.196093 0.13615 0)
(0.194129 0.138936 0)
(0.192125 0.141694 0)
(0.190083 0.144423 0)
(0.188001 0.147123 0)
(0.185881 0.149792 0)
(0.183723 0.152431 0)
(0.181528 0.155039 0)
(0.179295 0.157616 0)
(0.177026 0.16016 0)
(0.174721 0.162671 0)
(0.172381 0.16515 0)
(0.170005 0.167594 0)
(0.167594 0.170005 0)
(0.16515 0.172381 0)
(0.162671 0.174721 0)
(0.16016 0.177026 0)
(0.157616 0.179295 0)
(0.155039 0.181528 0)
(0.152431 0.183723 0)
(0.149792 0.185881 0)
(0.147123 0.188001 0)
(0.144423 0.190083 0)
(0.141694 0.192125 0)
(0.138936 0.194129 0)
(0.13615 0.196093 0)
(0.133336 0.198018 0)
(0.130495 0.199901 0)
(0.127627 0.201744 0)
(0.124733 0.203546 0)
(0.121814 0.205307 0)
(0.11887 0.207025 0)
(0.115902 0.208701 0)
(0.11291 0.210335 0)
(0.109895 0.211926 0)
(0.106857 0.213474 0)
(0.103798 0.214978 0)
(0.100718 0.216438 0)
(0.0976168 0.217854 0)
(0.094496 0.219226 0)
(0.091356 0.220553 0)
(0.0881973 0.221835 0)
(0.0850206 0.223072 0)
(0.0818266 0.224263 0)
(0.0786159 0.225408 0)
(0.0753891 0.226508 0)
(0.072147 0.227562 0)
(0.0688902 0.228569 0)
(0.0656193 0.229529 0)
(0.0623351 0.230443 0)
(0.0590381 0.231309 0)
(0.0557292 0.232129 0)
(0.0524088 0.232901 0)
(0.0490777 0.233625 0)
(0.0457367 0.234302 0)
(0.0423863 0.234932 0)
(0.0390273 0.235513 0)
(0.0356603 0.236046 0)
(0.0322861 0.236531 0)
(0.0289052 0.236968 0)
(0.0255185 0.237357 0)
(0.0221266 0.237697 0)
(0.0187301 0.237989 0)
(0.0153299 0.238232 0)
(0.0119265 0.238427 0)
(0.00852064 0.238572 0)
(0.00511308 0.23867 0)
(0.00170448 0.238719 0)
(0.236735 0.00169031 0)
(0.236687 0.00507059 0)
(0.23659 0.00844984 0)
(0.236445 0.0118274 0)
(0.236252 0.0152025 0)
(0.236011 0.0185745 0)
(0.235722 0.0219427 0)
(0.235385 0.0253065 0)
(0.234999 0.028665 0)
(0.234566 0.0320178 0)
(0.234085 0.035364 0)
(0.233556 0.038703 0)
(0.232979 0.0420341 0)
(0.232355 0.0453567 0)
(0.231684 0.04867 0)
(0.230966 0.0519733 0)
(0.2302 0.0552661 0)
(0.229387 0.0585476 0)
(0.228528 0.0618171 0)
(0.227622 0.0650741 0)
(0.226669 0.0683178 0)
(0.225671 0.0715475 0)
(0.224626 0.0747627 0)
(0.223536 0.0779626 0)
(0.222399 0.0811467 0)
(0.221218 0.0843141 0)
(0.219992 0.0874644 0)
(0.21872 0.0905969 0)
(0.217404 0.0937108 0)
(0.216044 0.0968057 0)
(0.21464 0.0998808 0)
(0.213191 0.102936 0)
(0.2117 0.105969 0)
(0.210165 0.108982 0)
(0.208587 0.111971 0)
(0.206967 0.114939 0)
(0.205305 0.117882 0)
(0.203601 0.120802 0)
(0.201855 0.123697 0)
(0.200068 0.126567 0)
(0.19824 0.129411 0)
(0.196372 0.132228 0)
(0.194464 0.135019 0)
(0.192516 0.137782 0)
(0.190529 0.140517 0)
(0.188503 0.143223 0)
(0.186439 0.1459 0)
(0.184336 0.148548 0)
(0.182196 0.151165 0)
(0.180019 0.153751 0)
(0.177805 0.156306 0)
(0.175555 0.158829 0)
(0.173269 0.16132 0)
(0.170948 0.163777 0)
(0.168592 0.166202 0)
(0.166202 0.168592 0)
(0.163777 0.170948 0)
(0.16132 0.173269 0)
(0.158829 0.175555 0)
(0.156306 0.177805 0)
(0.153751 0.180019 0)
(0.151165 0.182196 0)
(0.148548 0.184336 0)
(0.1459 0.186439 0)
(0.143223 0.188503 0)
(0.140517 0.190529 0)
(0.137782 0.192516 0)
(0.135019 0.194464 0)
(0.132228 0.196372 0)
(0.129411 0.19824 0)
(0.126567 0.200068 0)
(0.123697 0.201855 0)
(0.120802 0.203601 0)
(0.117882 0.205305 0)
(0.114939 0.206967 0)
(0.111971 0.208587 0)
(0.108982 0.210165 0)
(0.105969 0.2117 0)
(0.102936 0.213191 0)
(0.0998808 0.21464 0)
(0.0968057 0.216044 0)
(0.0937108 0.217404 0)
(0.0905969 0.21872 0)
(0.0874644 0.219992 0)
(0.0843141 0.221218 0)
(0.0811467 0.222399 0)
(0.0779626 0.223536 0)
(0.0747627 0.224626 0)
(0.0715475 0.225671 0)
(0.0683178 0.226669 0)
(0.0650741 0.227622 0)
(0.0618171 0.228528 0)
(0.0585476 0.229387 0)
(0.0552661 0.2302 0)
(0.0519733 0.230966 0)
(0.04867 0.231684 0)
(0.0453567 0.232355 0)
(0.0420341 0.232979 0)
(0.038703 0.233556 0)
(0.035364 0.234085 0)
(0.0320178 0.234566 0)
(0.028665 0.234999 0)
(0.0253065 0.235385 0)
(0.0219427 0.235722 0)
(0.0185745 0.236011 0)
(0.0152025 0.236252 0)
(0.0118274 0.236445 0)
(0.00844984 0.23659 0)
(0.00507059 0.236687 0)
(0.00169031 0.236735 0)
(0.234811 0.00167657 0)
(0.234763 0.00502938 0)
(0.234667 0.00838116 0)
(0.234524 0.0117312 0)
(0.234332 0.0150789 0)
(0.234093 0.0184235 0)
(0.233806 0.0217644 0)
(0.233471 0.0251008 0)
(0.233089 0.0284321 0)
(0.232659 0.0317576 0)
(0.232182 0.0350766 0)
(0.231658 0.0383885 0)
(0.231086 0.0416925 0)
(0.230467 0.044988 0)
(0.229801 0.0482744 0)
(0.229088 0.0515509 0)
(0.228329 0.0548169 0)
(0.227523 0.0580717 0)
(0.22667 0.0613147 0)
(0.225772 0.0645452 0)
(0.224827 0.0677625 0)
(0.223837 0.070966 0)
(0.2228 0.0741551 0)
(0.221719 0.077329 0)
(0.220592 0.0804871 0)
(0.21942 0.0836289 0)
(0.218204 0.0867535 0)
(0.216943 0.0898605 0)
(0.215637 0.0929492 0)
(0.214288 0.0960189 0)
(0.212895 0.099069 0)
(0.211459 0.102099 0)
(0.209979 0.105108 0)
(0.208457 0.108096 0)
(0.206892 0.111061 0)
(0.205285 0.114004 0)
(0.203636 0.116924 0)
(0.201946 0.11982 0)
(0.200214 0.122691 0)
(0.198442 0.125538 0)
(0.196629 0.128359 0)
(0.194776 0.131153 0)
(0.192883 0.133921 0)
(0.190951 0.136662 0)
(0.188981 0.139375 0)
(0.186971 0.142059 0)
(0.184923 0.144714 0)
(0.182838 0.14734 0)
(0.180716 0.149936 0)
(0.178556 0.152501 0)
(0.17636 0.155036 0)
(0.174129 0.157538 0)
(0.171861 0.160008 0)
(0.169559 0.162446 0)
(0.167222 0.164851 0)
(0.164851 0.167222 0)
(0.162446 0.169559 0)
(0.160008 0.171861 0)
(0.157538 0.174129 0)
(0.155036 0.17636 0)
(0.152501 0.178556 0)
(0.149936 0.180716 0)
(0.14734 0.182838 0)
(0.144714 0.184923 0)
(0.142059 0.186971 0)
(0.139375 0.188981 0)
(0.136662 0.190951 0)
(0.133921 0.192883 0)
(0.131153 0.194776 0)
(0.128359 0.196629 0)
(0.125538 0.198442 0)
(0.122691 0.200214 0)
(0.11982 0.201946 0)
(0.116924 0.203636 0)
(0.114004 0.205285 0)
(0.111061 0.206892 0)
(0.108096 0.208457 0)
(0.105108 0.209979 0)
(0.102099 0.211459 0)
(0.099069 0.212895 0)
(0.0960189 0.214288 0)
(0.0929492 0.215637 0)
(0.0898605 0.216943 0)
(0.0867535 0.218204 0)
(0.0836289 0.21942 0)
(0.0804871 0.220592 0)
(0.077329 0.221719 0)
(0.0741551 0.2228 0)
(0.070966 0.223837 0)
(0.0677625 0.224827 0)
(0.0645452 0.225772 0)
(0.0613147 0.22667 0)
(0.0580717 0.227523 0)
(0.0548169 0.228329 0)
(0.0515509 0.229088 0)
(0.0482744 0.229801 0)
(0.044988 0.230467 0)
(0.0416925 0.231086 0)
(0.0383885 0.231658 0)
(0.0350766 0.232182 0)
(0.0317576 0.232659 0)
(0.0284321 0.233089 0)
(0.0251008 0.233471 0)
(0.0217644 0.233806 0)
(0.0184235 0.234093 0)
(0.0150789 0.234332 0)
(0.0117312 0.234524 0)
(0.00838116 0.234667 0)
(0.00502938 0.234763 0)
(0.00167657 0.234811 0)
(0.232947 0.00166326 0)
(0.232899 0.00498945 0)
(0.232804 0.00831462 0)
(0.232662 0.0116381 0)
(0.232472 0.0149592 0)
(0.232234 0.0182772 0)
(0.23195 0.0215916 0)
(0.231618 0.0249015 0)
(0.231239 0.0282063 0)
(0.230812 0.0315054 0)
(0.230339 0.0347981 0)
(0.229818 0.0380837 0)
(0.229251 0.0413615 0)
(0.228637 0.0446308 0)
(0.227977 0.0478911 0)
(0.22727 0.0511416 0)
(0.226516 0.0543817 0)
(0.225716 0.0576107 0)
(0.224871 0.0608279 0)
(0.223979 0.0640328 0)
(0.223042 0.0672245 0)
(0.222059 0.0704026 0)
(0.221031 0.0735663 0)
(0.219958 0.076715 0)
(0.218841 0.0798481 0)
(0.217678 0.0829649 0)
(0.216471 0.0860648 0)
(0.21522 0.0891471 0)
(0.213925 0.0922112 0)
(0.212587 0.0952566 0)
(0.211205 0.0982825 0)
(0.20978 0.101288 0)
(0.208312 0.104274 0)
(0.206802 0.107238 0)
(0.205249 0.11018 0)
(0.203655 0.113099 0)
(0.202019 0.115996 0)
(0.200343 0.118869 0)
(0.198625 0.121717 0)
(0.196866 0.124541 0)
(0.195068 0.12734 0)
(0.19323 0.130112 0)
(0.191352 0.132858 0)
(0.189435 0.135577 0)
(0.18748 0.138268 0)
(0.185487 0.140931 0)
(0.183455 0.143566 0)
(0.181387 0.146171 0)
(0.179281 0.148746 0)
(0.177139 0.151291 0)
(0.17496 0.153805 0)
(0.172746 0.156287 0)
(0.170497 0.158738 0)
(0.168213 0.161156 0)
(0.165894 0.163542 0)
(0.163542 0.165894 0)
(0.161156 0.168213 0)
(0.158738 0.170497 0)
(0.156287 0.172746 0)
(0.153805 0.17496 0)
(0.151291 0.177139 0)
(0.148746 0.179281 0)
(0.146171 0.181387 0)
(0.143566 0.183455 0)
(0.140931 0.185487 0)
(0.138268 0.18748 0)
(0.135577 0.189435 0)
(0.132858 0.191352 0)
(0.130112 0.19323 0)
(0.12734 0.195068 0)
(0.124541 0.196866 0)
(0.121717 0.198625 0)
(0.118869 0.200343 0)
(0.115996 0.202019 0)
(0.113099 0.203655 0)
(0.11018 0.205249 0)
(0.107238 0.206802 0)
(0.104274 0.208312 0)
(0.101288 0.20978 0)
(0.0982825 0.211205 0)
(0.0952566 0.212587 0)
(0.0922112 0.213925 0)
(0.0891471 0.21522 0)
(0.0860648 0.216471 0)
(0.0829649 0.217678 0)
(0.0798481 0.218841 0)
(0.076715 0.219958 0)
(0.0735663 0.221031 0)
(0.0704026 0.222059 0)
(0.0672245 0.223042 0)
(0.0640328 0.223979 0)
(0.0608279 0.224871 0)
(0.0576107 0.225716 0)
(0.0543817 0.226516 0)
(0.0511416 0.22727 0)
(0.0478911 0.227977 0)
(0.0446308 0.228637 0)
(0.0413615 0.229251 0)
(0.0380837 0.229818 0)
(0.0347981 0.230339 0)
(0.0315054 0.230812 0)
(0.0282063 0.231239 0)
(0.0249015 0.231618 0)
(0.0215916 0.23195 0)
(0.0182772 0.232234 0)
(0.0149592 0.232472 0)
(0.0116381 0.232662 0)
(0.00831462 0.232804 0)
(0.00498945 0.232899 0)
(0.00166326 0.232947 0)
(0.231139 0.00165035 0)
(0.231092 0.00495073 0)
(0.230997 0.00825009 0)
(0.230856 0.0115478 0)
(0.230668 0.0148431 0)
(0.230432 0.0181354 0)
(0.23015 0.021424 0)
(0.22982 0.0247082 0)
(0.229444 0.0279874 0)
(0.229021 0.0312609 0)
(0.228551 0.034528 0)
(0.228035 0.0377881 0)
(0.227472 0.0410405 0)
(0.226863 0.0442845 0)
(0.226207 0.0475194 0)
(0.225506 0.0507447 0)
(0.224758 0.0539596 0)
(0.223965 0.0571636 0)
(0.223126 0.0603558 0)
(0.222241 0.0635358 0)
(0.221311 0.0667028 0)
(0.220336 0.0698562 0)
(0.219316 0.0729954 0)
(0.218251 0.0761197 0)
(0.217142 0.0792284 0)
(0.215989 0.082321 0)
(0.214791 0.0853968 0)
(0.21355 0.0884552 0)
(0.212265 0.0914956 0)
(0.210937 0.0945173 0)
(0.209566 0.0975197 0)
(0.208152 0.100502 0)
(0.206695 0.103464 0)
(0.205197 0.106405 0)
(0.203657 0.109325 0)
(0.202075 0.112221 0)
(0.200452 0.115096 0)
(0.198788 0.117946 0)
(0.197083 0.120773 0)
(0.195339 0.123575 0)
(0.193554 0.126351 0)
(0.19173 0.129102 0)
(0.189867 0.131827 0)
(0.187965 0.134525 0)
(0.186025 0.137195 0)
(0.184047 0.139837 0)
(0.182032 0.142451 0)
(0.179979 0.145036 0)
(0.177889 0.147591 0)
(0.175764 0.150116 0)
(0.173602 0.152611 0)
(0.171405 0.155074 0)
(0.169173 0.157506 0)
(0.166907 0.159906 0)
(0.164607 0.162273 0)
(0.162273 0.164607 0)
(0.159906 0.166907 0)
(0.157506 0.169173 0)
(0.155074 0.171405 0)
(0.152611 0.173602 0)
(0.150116 0.175764 0)
(0.147591 0.177889 0)
(0.145036 0.179979 0)
(0.142451 0.182032 0)
(0.139837 0.184047 0)
(0.137195 0.186025 0)
(0.134525 0.187965 0)
(0.131827 0.189867 0)
(0.129102 0.19173 0)
(0.126351 0.193554 0)
(0.123575 0.195339 0)
(0.120773 0.197083 0)
(0.117946 0.198788 0)
(0.115096 0.200452 0)
(0.112221 0.202075 0)
(0.109325 0.203657 0)
(0.106405 0.205197 0)
(0.103464 0.206695 0)
(0.100502 0.208152 0)
(0.0975197 0.209566 0)
(0.0945173 0.210937 0)
(0.0914956 0.212265 0)
(0.0884552 0.21355 0)
(0.0853968 0.214791 0)
(0.082321 0.215989 0)
(0.0792284 0.217142 0)
(0.0761197 0.218251 0)
(0.0729954 0.219316 0)
(0.0698562 0.220336 0)
(0.0667028 0.221311 0)
(0.0635358 0.222241 0)
(0.0603558 0.223126 0)
(0.0571636 0.223965 0)
(0.0539596 0.224758 0)
(0.0507447 0.225506 0)
(0.0475194 0.226207 0)
(0.0442845 0.226863 0)
(0.0410405 0.227472 0)
(0.0377881 0.228035 0)
(0.034528 0.228551 0)
(0.0312609 0.229021 0)
(0.0279874 0.229444 0)
(0.0247082 0.22982 0)
(0.021424 0.23015 0)
(0.0181354 0.230432 0)
(0.0148431 0.230668 0)
(0.0115478 0.230856 0)
(0.00825009 0.230997 0)
(0.00495073 0.231092 0)
(0.00165035 0.231139 0)
(0.229386 0.00163784 0)
(0.229339 0.00491319 0)
(0.229246 0.00818753 0)
(0.229105 0.0114602 0)
(0.228918 0.0147305 0)
(0.228685 0.0179979 0)
(0.228404 0.0212615 0)
(0.228077 0.0245209 0)
(0.227704 0.0277752 0)
(0.227284 0.0310239 0)
(0.226818 0.0342662 0)
(0.226306 0.0375015 0)
(0.225747 0.0407292 0)
(0.225142 0.0439486 0)
(0.224492 0.0471591 0)
(0.223796 0.0503599 0)
(0.223054 0.0535505 0)
(0.222266 0.0567301 0)
(0.221434 0.0598981 0)
(0.220556 0.063054 0)
(0.219633 0.066197 0)
(0.218665 0.0693265 0)
(0.217653 0.0724418 0)
(0.216596 0.0755424 0)
(0.215495 0.0786276 0)
(0.214351 0.0816968 0)
(0.213162 0.0847492 0)
(0.21193 0.0877844 0)
(0.210655 0.0908018 0)
(0.209337 0.0938005 0)
(0.207976 0.0967802 0)
(0.206573 0.0997401 0)
(0.205128 0.10268 0)
(0.203641 0.105598 0)
(0.202112 0.108495 0)
(0.200542 0.11137 0)
(0.198932 0.114223 0)
(0.19728 0.117052 0)
(0.195589 0.119857 0)
(0.193857 0.122638 0)
(0.192086 0.125393 0)
(0.190276 0.128123 0)
(0.188427 0.130827 0)
(0.18654 0.133505 0)
(0.184614 0.136155 0)
(0.182651 0.138777 0)
(0.180651 0.141371 0)
(0.178614 0.143936 0)
(0.17654 0.146472 0)
(0.174431 0.148978 0)
(0.172286 0.151454 0)
(0.170106 0.153898 0)
(0.167891 0.156312 0)
(0.165641 0.158693 0)
(0.163358 0.161042 0)
(0.161042 0.163358 0)
(0.158693 0.165641 0)
(0.156312 0.167891 0)
(0.153898 0.170106 0)
(0.151454 0.172286 0)
(0.148978 0.174431 0)
(0.146472 0.17654 0)
(0.143936 0.178614 0)
(0.141371 0.180651 0)
(0.138777 0.182651 0)
(0.136155 0.184614 0)
(0.133505 0.18654 0)
(0.130827 0.188427 0)
(0.128123 0.190276 0)
(0.125393 0.192086 0)
(0.122638 0.193857 0)
(0.119857 0.195589 0)
(0.117052 0.19728 0)
(0.114223 0.198932 0)
(0.11137 0.200542 0)
(0.108495 0.202112 0)
(0.105598 0.203641 0)
(0.10268 0.205128 0)
(0.0997401 0.206573 0)
(0.0967802 0.207976 0)
(0.0938005 0.209337 0)
(0.0908018 0.210655 0)
(0.0877844 0.21193 0)
(0.0847492 0.213162 0)
(0.0816968 0.214351 0)
(0.0786276 0.215495 0)
(0.0755424 0.216596 0)
(0.0724418 0.217653 0)
(0.0693265 0.218665 0)
(0.066197 0.219633 0)
(0.063054 0.220556 0)
(0.0598981 0.221434 0)
(0.0567301 0.222266 0)
(0.0535505 0.223054 0)
(0.0503599 0.223796 0)
(0.0471591 0.224492 0)
(0.0439486 0.225142 0)
(0.0407292 0.225747 0)
(0.0375015 0.226306 0)
(0.0342662 0.226818 0)
(0.0310239 0.227284 0)
(0.0277752 0.227704 0)
(0.0245209 0.228077 0)
(0.0212615 0.228404 0)
(0.0179979 0.228685 0)
(0.0147305 0.228918 0)
(0.0114602 0.229105 0)
(0.00818753 0.229246 0)
(0.00491319 0.229339 0)
(0.00163784 0.229386 0)
(0.227686 0.0016257 0)
(0.22764 0.00487678 0)
(0.227547 0.00812685 0)
(0.227408 0.0113753 0)
(0.227222 0.0146214 0)
(0.22699 0.0178645 0)
(0.226712 0.021104 0)
(0.226387 0.0243391 0)
(0.226017 0.0275694 0)
(0.2256 0.0307939 0)
(0.225137 0.0340123 0)
(0.224629 0.0372236 0)
(0.224074 0.0404274 0)
(0.223474 0.043623 0)
(0.222828 0.0468096 0)
(0.222137 0.0499867 0)
(0.221401 0.0531536 0)
(0.220619 0.0563097 0)
(0.219793 0.0594543 0)
(0.218921 0.0625867 0)
(0.218005 0.0657064 0)
(0.217045 0.0688127 0)
(0.21604 0.071905 0)
(0.214991 0.0749826 0)
(0.213899 0.0780449 0)
(0.212762 0.0810913 0)
(0.211583 0.0841212 0)
(0.21036 0.0871339 0)
(0.209094 0.0901288 0)
(0.207786 0.0931054 0)
(0.206435 0.096063 0)
(0.205042 0.099001 0)
(0.203608 0.101919 0)
(0.202132 0.104816 0)
(0.200614 0.107691 0)
(0.199056 0.110545 0)
(0.197457 0.113376 0)
(0.195818 0.116184 0)
(0.194139 0.118969 0)
(0.192421 0.121729 0)
(0.190663 0.124464 0)
(0.188866 0.127174 0)
(0.187031 0.129858 0)
(0.185157 0.132515 0)
(0.183246 0.135146 0)
(0.181298 0.137749 0)
(0.179312 0.140323 0)
(0.17729 0.14287 0)
(0.175232 0.145387 0)
(0.173138 0.147874 0)
(0.171009 0.150331 0)
(0.168845 0.152758 0)
(0.166646 0.155153 0)
(0.164414 0.157517 0)
(0.162148 0.159849 0)
(0.159849 0.162148 0)
(0.157517 0.164414 0)
(0.155153 0.166646 0)
(0.152758 0.168845 0)
(0.150331 0.171009 0)
(0.147874 0.173138 0)
(0.145387 0.175232 0)
(0.14287 0.17729 0)
(0.140323 0.179312 0)
(0.137749 0.181298 0)
(0.135146 0.183246 0)
(0.132515 0.185157 0)
(0.129858 0.187031 0)
(0.127174 0.188866 0)
(0.124464 0.190663 0)
(0.121729 0.192421 0)
(0.118969 0.194139 0)
(0.116184 0.195818 0)
(0.113376 0.197457 0)
(0.110545 0.199056 0)
(0.107691 0.200614 0)
(0.104816 0.202132 0)
(0.101919 0.203608 0)
(0.099001 0.205042 0)
(0.096063 0.206435 0)
(0.0931054 0.207786 0)
(0.0901288 0.209094 0)
(0.0871339 0.21036 0)
(0.0841212 0.211583 0)
(0.0810913 0.212762 0)
(0.0780449 0.213899 0)
(0.0749826 0.214991 0)
(0.071905 0.21604 0)