/*--------------------------------*- C++ -*----------------------------------*\
| =========                 |                                                 |
| \\      /  F ield         | OpenFOAM: The Open Source CFD Toolbox           |
|  \\    /   O peration     | Version:  2312                                  |
|   \\  /    A nd           | Website:  www.openfoam.com                      |
|    \\/     M anipulation  |                                                 |
\*---------------------------------------------------------------------------*/
FoamFile
{
    version     2.0;
    format      ascii;
    arch        "LSB;label=32;scalar=64";
    class       volSymmTensorField;
    location    "10";
    object      sigma;
}
// * * * * * * * * * * * * * * * * * * * * * * * * * * * * * * * * * * * * * //

dimensions      [1 -1 -2 0 0 0 0];

internalField   nonuniform List<symmTensor> 
12870
(
(-9.79092e+06 -166481 8.49128e-13 1.35242e+07 -3.77038e-10 -481661)
(-9.78141e+06 -499307 -2.65586e-10 1.35147e+07 1.82871e-10 -481661)
(-9.7624e+06 -831725 3.81927e-10 1.34957e+07 3.90915e-10 -481661)
(-9.73391e+06 -1.16347e+06 1.03384e-11 1.34672e+07 -1.88236e-10 -481661)
(-9.69595e+06 -1.49426e+06 -1.44019e-10 1.34292e+07 1.79639e-10 -481661)
(-9.64857e+06 -1.82383e+06 3.96254e-10 1.33818e+07 3.11859e-11 -481661)
(-9.59179e+06 -2.15191e+06 -1.14144e-10 1.33251e+07 -1.99957e-10 -481661)
(-9.52567e+06 -2.47824e+06 2.45454e-10 1.32589e+07 2.15992e-10 -481661)
(-9.45025e+06 -2.80255e+06 -4.5652e-11 1.31835e+07 3.7426e-10 -481661)
(-9.36561e+06 -3.12457e+06 2.3736e-10 1.30989e+07 2.22664e-10 -481661)
(-9.2718e+06 -3.44405e+06 2.90477e-10 1.30051e+07 -1.46773e-10 -481661)
(-9.16891e+06 -3.76071e+06 2.52776e-10 1.29022e+07 -7.22463e-10 -481661)
(-9.05702e+06 -4.07431e+06 -5.1853e-10 1.27903e+07 -9.3553e-11 -481661)
(-8.93622e+06 -4.38459e+06 -1.36068e-10 1.26695e+07 -2.6561e-11 -481661)
(-8.80661e+06 -4.69129e+06 -2.17264e-10 1.25399e+07 -2.38272e-10 -481661)
(-8.66829e+06 -4.99416e+06 -3.84779e-10 1.24016e+07 4.93108e-10 -481661)
(-8.52138e+06 -5.29296e+06 -4.49044e-11 1.22547e+07 1.83093e-10 -481661)
(-8.366e+06 -5.58744e+06 1.28973e-10 1.20993e+07 3.29184e-11 -481661)
(-8.20227e+06 -5.87736e+06 1.76825e-10 1.19355e+07 -1.47461e-10 -481661)
(-8.03033e+06 -6.1625e+06 5.27045e-11 1.17636e+07 -1.81002e-10 -481661)
(-7.85031e+06 -6.4426e+06 0 1.15836e+07 0 -481661)
(-7.66238e+06 -6.71745e+06 -1.82978e-10 1.13956e+07 1.39753e-10 -481661)
(-7.46667e+06 -6.98682e+06 -1.19067e-10 1.11999e+07 3.5774e-10 -481661)
(-7.26334e+06 -7.2505e+06 1.85154e-10 1.09966e+07 -1.35077e-10 -481661)
(-7.05258e+06 -7.50826e+06 5.92149e-12 1.07858e+07 -3.99187e-10 -481661)
(-6.83453e+06 -7.75989e+06 1.16203e-10 1.05678e+07 4.4778e-10 -481661)
(-6.60939e+06 -8.0052e+06 3.81539e-10 1.03427e+07 -2.54048e-10 -481661)
(-6.37734e+06 -8.24397e+06 -9.65581e-11 1.01106e+07 -4.48094e-10 -481661)
(-6.13856e+06 -8.47603e+06 -1.2562e-10 9.87183e+06 -5.41479e-11 -481661)
(-5.89326e+06 -8.70117e+06 -5.13539e-10 9.62653e+06 1.83046e-10 -481661)
(-5.64162e+06 -8.91921e+06 -8.01203e-11 9.37489e+06 7.94431e-10 -481661)
(-5.38386e+06 -9.12998e+06 1.62276e-10 9.11713e+06 -3.4033e-10 -481661)
(-5.12019e+06 -9.3333e+06 -3.21727e-11 8.85346e+06 -2.26921e-10 -481661)
(-4.85082e+06 -9.52901e+06 -2.05765e-10 8.58409e+06 1.05656e-10 -481661)
(-4.57597e+06 -9.71695e+06 2.05629e-10 8.30924e+06 -1.03578e-10 -481661)
(-4.29586e+06 -9.89696e+06 -2.40361e-11 8.02913e+06 -2.28985e-10 -481661)
(-4.01073e+06 -1.00689e+07 1.86141e-10 7.744e+06 -3.27886e-10 -481661)
(-3.7208e+06 -1.02326e+07 -3.49747e-11 7.45408e+06 -4.59156e-10 -481661)
(-3.42632e+06 -1.0388e+07 -6.494e-10 7.15959e+06 4.42432e-11 -481661)
(-3.12752e+06 -1.05349e+07 -6.28117e-10 6.86079e+06 4.94933e-10 -481661)
(-2.82465e+06 -1.06732e+07 2.19835e-10 6.55792e+06 1.43507e-10 -481661)
(-2.51795e+06 -1.08029e+07 3.05732e-12 6.25122e+06 2.05866e-12 -481661)
(-2.20768e+06 -1.09237e+07 2.1298e-12 5.94095e+06 4.60481e-10 -481661)
(-1.89408e+06 -1.10355e+07 2.17933e-10 5.62735e+06 -3.07674e-10 -481661)
(-1.57741e+06 -1.11384e+07 -1.04159e-10 5.31069e+06 -7.68178e-11 -481661)
(-1.25794e+06 -1.12322e+07 -1.75931e-11 4.99121e+06 4.6015e-10 -481661)
(-935916 -1.13169e+07 0 4.66919e+06 0 -481661)
(-611608 -1.13923e+07 3.38785e-10 4.34488e+06 -2.1121e-10 -481661)
(-285278 -1.14584e+07 4.8149e-10 4.01855e+06 -5.80332e-10 -481661)
(42807 -1.15152e+07 -5.7382e-11 3.69046e+06 -5.44841e-10 -481661)
(372379 -1.15626e+07 -2.99913e-10 3.36089e+06 -2.63649e-10 -481661)
(703171 -1.16005e+07 -6.73495e-10 3.0301e+06 1.53335e-10 -481661)
(1.03491e+06 -1.1629e+07 -1.62195e-10 2.69836e+06 3.64139e-10 -481661)
(1.36733e+06 -1.1648e+07 -1.909e-10 2.36594e+06 -1.82893e-10 -481661)
(1.70016e+06 -1.16576e+07 -3.59484e-10 2.03312e+06 1.75053e-10 -481661)
(2.03312e+06 -1.16576e+07 5.06097e-10 1.70016e+06 2.44848e-10 -481661)
(2.36594e+06 -1.1648e+07 2.54985e-12 1.36733e+06 2.6615e-12 -481661)
(2.69836e+06 -1.1629e+07 2.72182e-10 1.03491e+06 -2.60964e-10 -481661)
(3.0301e+06 -1.16005e+07 -2.62959e-10 703171 -2.90651e-10 -481661)
(3.36089e+06 -1.15626e+07 -1.11058e-10 372380 4.44723e-10 -481661)
(3.69046e+06 -1.15152e+07 -2.26804e-10 42807.1 2.47196e-11 -481661)
(4.01855e+06 -1.14584e+07 3.70452e-10 -285278 -1.43978e-10 -481661)
(4.34488e+06 -1.13923e+07 -9.85718e-11 -611608 -4.2276e-10 -481661)
(4.66919e+06 -1.13169e+07 -2.84159e-10 -935916 5.54563e-10 -481661)
(4.99121e+06 -1.12322e+07 8.16421e-11 -1.25794e+06 1.07453e-10 -481661)
(5.31068e+06 -1.11384e+07 -1.09386e-12 -1.57741e+06 -1.48318e-12 -481661)
(5.62735e+06 -1.10355e+07 2.31305e-10 -1.89408e+06 -7.24281e-13 -481661)
(5.94095e+06 -1.09237e+07 7.8412e-11 -2.20768e+06 -2.1761e-10 -481661)
(6.25122e+06 -1.08029e+07 4.68599e-10 -2.51795e+06 -3.16644e-10 -481661)
(6.55792e+06 -1.06732e+07 -6.0374e-10 -2.82465e+06 -2.35113e-10 -481661)
(6.86079e+06 -1.05349e+07 -2.50422e-10 -3.12752e+06 3.09386e-10 -481661)
(7.15959e+06 -1.0388e+07 3.22437e-10 -3.42632e+06 -1.95428e-10 -481661)
(7.45408e+06 -1.02326e+07 -1.87473e-10 -3.7208e+06 4.22923e-10 -481661)
(7.744e+06 -1.00689e+07 -1.64861e-10 -4.01073e+06 9.14724e-11 -481661)
(8.02913e+06 -9.89696e+06 3.29616e-10 -4.29586e+06 -1.83051e-10 -481661)
(8.30924e+06 -9.71695e+06 1.03578e-10 -4.57597e+06 -2.05629e-10 -481661)
(8.58409e+06 -9.52901e+06 -6.12748e-11 -4.85082e+06 -1.18165e-10 -481661)
(8.85346e+06 -9.3333e+06 -1.68164e-10 -5.12019e+06 8.52074e-11 -481661)
(9.11713e+06 -9.12998e+06 1.72825e-10 -5.38386e+06 3.57941e-10 -481661)
(9.37489e+06 -8.91921e+06 7.77524e-13 -5.64162e+06 1.67086e-12 -481661)
(9.62653e+06 -8.70117e+06 3.96994e-10 -5.89326e+06 -3.60658e-11 -481661)
(9.87183e+06 -8.47603e+06 -4.48698e-10 -6.13856e+06 -8.84573e-11 -481661)
(1.01106e+07 -8.24397e+06 1.49288e-10 -6.37734e+06 3.60413e-10 -481661)
(1.03427e+07 -8.0052e+06 3.80391e-10 -6.60939e+06 -5.74021e-10 -481661)
(1.05678e+07 -7.75989e+06 -3.52968e-10 -6.83453e+06 1.32557e-10 -481661)
(1.07858e+07 -7.50826e+06 -1.76781e-10 -7.05258e+06 6.54828e-11 -481661)
(1.09966e+07 -7.2505e+06 -3.12168e-10 -7.26334e+06 2.49846e-10 -481661)
(1.11999e+07 -6.98682e+06 5.7719e-10 -7.46667e+06 -5.66764e-11 -481661)
(1.13956e+07 -6.71745e+06 2.22786e-12 -7.66238e+06 7.02694e-12 -481661)
(1.15836e+07 -6.4426e+06 -3.24178e-10 -7.85031e+06 2.30954e-10 -481661)
(1.17636e+07 -6.1625e+06 -3.55748e-11 -8.03033e+06 -1.24436e-10 -481661)
(1.19355e+07 -5.87736e+06 6.85509e-11 -8.20227e+06 2.53421e-10 -481661)
(1.20993e+07 -5.58744e+06 7.30645e-10 -8.366e+06 -1.86486e-10 -481661)
(1.22547e+07 -5.29296e+06 -4.27473e-10 -8.52138e+06 -1.65467e-10 -481661)
(1.24016e+07 -4.99416e+06 -7.36481e-10 -8.66829e+06 1.6195e-10 -481661)
(1.25399e+07 -4.69129e+06 4.7806e-10 -8.80661e+06 4.41742e-10 -481661)
(1.26695e+07 -4.38459e+06 1.60053e-10 -8.93622e+06 -1.64046e-10 -481661)
(1.27903e+07 -4.07431e+06 -3.71043e-10 -9.05702e+06 6.69436e-11 -481661)
(1.29022e+07 -3.76071e+06 2.0729e-10 -9.16891e+06 9.77703e-11 -481661)
(1.30051e+07 -3.44405e+06 7.25724e-10 -9.2718e+06 -2.44256e-10 -481661)
(1.30989e+07 -3.12457e+06 -1.86162e-10 -9.36561e+06 3.00607e-11 -481661)
(1.31835e+07 -2.80255e+06 -5.77842e-10 -9.45025e+06 -6.63943e-11 -481661)
(1.32589e+07 -2.47824e+06 0 -9.52567e+06 0 -481661)
(1.33251e+07 -2.15191e+06 1.8762e-10 -9.59179e+06 -1.83905e-11 -481661)
(1.33818e+07 -1.82383e+06 5.63735e-10 -9.64857e+06 -4.52912e-11 -481661)
(1.34292e+07 -1.49426e+06 -2.04927e-10 -9.69595e+06 -2.48962e-10 -481661)
(1.34672e+07 -1.16347e+06 -3.70097e-10 -9.73391e+06 1.48096e-10 -481661)
(1.34957e+07 -831725 5.65158e-10 -9.7624e+06 -2.11067e-11 -481661)
(1.35147e+07 -499307 -5.62293e-12 -9.78141e+06 -2.62469e-10 -481661)
(1.35242e+07 -166481 -3.77038e-10 -9.79092e+06 8.49128e-13 -481661)
(-9.55554e+06 -162589 -1.31703e-10 1.32146e+07 -9.40373e-13 -469071)
(-9.54626e+06 -487635 -2.54913e-10 1.32053e+07 -3.68931e-10 -469071)
(-9.5277e+06 -812283 -9.71422e-14 1.31867e+07 -3.46824e-15 -469071)
(-9.49987e+06 -1.13627e+06 -2.81173e-11 1.31589e+07 5.44356e-10 -469071)
(-9.4628e+06 -1.45933e+06 -2.41861e-10 1.31218e+07 -3.79702e-10 -469071)
(-9.41652e+06 -1.7812e+06 1.32971e-10 1.30755e+07 1.04651e-11 -469071)
(-9.36107e+06 -2.10161e+06 -4.08762e-12 1.30201e+07 -3.80502e-13 -469071)
(-9.2965e+06 -2.42031e+06 2.87412e-12 1.29555e+07 3.09002e-13 -469071)
(-9.22284e+06 -2.73704e+06 -1.78257e-10 1.28819e+07 3.44337e-10 -469071)
(-9.14018e+06 -3.05154e+06 1.53541e-10 1.27992e+07 -1.6242e-10 -469071)
(-9.04856e+06 -3.36354e+06 -2.40194e-12 1.27076e+07 -3.6287e-13 -469071)
(-8.94808e+06 -3.67281e+06 3.30947e-10 1.26071e+07 4.23184e-10 -469071)
(-8.8388e+06 -3.97907e+06 -3.20712e-10 1.24978e+07 3.11391e-10 -469071)
(-8.72082e+06 -4.28209e+06 -6.01945e-11 1.23798e+07 -3.81996e-10 -469071)
(-8.59424e+06 -4.58162e+06 -3.80831e-10 1.22533e+07 -8.00013e-11 -469071)
(-8.45916e+06 -4.87742e+06 -4.01135e-11 1.21182e+07 1.7721e-10 -469071)
(-8.31568e+06 -5.16923e+06 8.4831e-11 1.19747e+07 -3.53347e-10 -469071)
(-8.16393e+06 -5.45683e+06 1.72231e-10 1.18229e+07 -1.43559e-10 -469071)
(-8.00403e+06 -5.73998e+06 -1.2831e-10 1.1663e+07 -3.4708e-11 -469071)
(-7.83611e+06 -6.01844e+06 -2.53266e-10 1.14951e+07 -7.24055e-11 -469071)
(-7.66031e+06 -6.292e+06 -5.15835e-11 1.13193e+07 1.7422e-10 -469071)
(-7.47676e+06 -6.56043e+06 -3.05694e-10 1.11358e+07 9.36881e-11 -469071)
(-7.28563e+06 -6.8235e+06 1.24966e-10 1.09446e+07 4.15928e-11 -469071)
(-7.08706e+06 -7.08101e+06 1.23213e-10 1.07461e+07 4.2973e-11 -469071)
(-6.88122e+06 -7.33274e+06 6.17493e-11 1.05402e+07 -5.577e-10 -469071)
(-6.66827e+06 -7.5785e+06 -5.64886e-11 1.03273e+07 -2.15973e-10 -469071)
(-6.44839e+06 -7.81807e+06 -1.57711e-11 1.01074e+07 3.84784e-10 -469071)
(-6.22176e+06 -8.05127e+06 -5.53191e-10 9.88077e+06 -3.24756e-11 -469071)
(-5.98857e+06 -8.2779e+06 -1.92569e-10 9.64757e+06 1.14848e-10 -469071)
(-5.74899e+06 -8.49777e+06 7.68123e-11 9.408e+06 -1.64681e-10 -469071)
(-5.50324e+06 -8.71072e+06 1.62374e-10 9.16225e+06 2.75962e-10 -469071)
(-5.25151e+06 -8.91656e+06 1.55814e-10 8.91051e+06 2.76996e-10 -469071)
(-4.994e+06 -9.11513e+06 2.67185e-12 8.65301e+06 1.33743e-12 -469071)
(-4.73092e+06 -9.30627e+06 8.23578e-11 8.38993e+06 -1.61962e-10 -469071)
(-4.4625e+06 -9.48981e+06 8.72091e-11 8.12151e+06 -1.59403e-10 -469071)
(-4.18894e+06 -9.66562e+06 -4.88432e-13 7.84795e+06 -2.71249e-13 -469071)
(-3.91047e+06 -9.83354e+06 9.12409e-11 7.56948e+06 -1.57125e-10 -469071)
(-3.62733e+06 -9.99344e+06 -4.0835e-10 7.28633e+06 1.80251e-10 -469071)
(-3.33973e+06 -1.01452e+07 -4.11835e-10 6.99874e+06 1.73818e-10 -469071)
(-3.04791e+06 -1.02887e+07 1.94828e-10 6.70692e+06 -3.06745e-10 -469071)
(-2.75212e+06 -1.04237e+07 6.39239e-10 6.41113e+06 -1.66681e-11 -469071)
(-2.45259e+06 -1.05503e+07 0 6.1116e+06 0 -469071)
(-2.14957e+06 -1.06683e+07 8.5861e-12 5.80858e+06 4.4835e-10 -469071)
(-1.8433e+06 -1.07776e+07 -1.07908e-10 5.50231e+06 1.46204e-10 -469071)
(-1.53404e+06 -1.08781e+07 2.16665e-10 5.19305e+06 -2.91733e-10 -469071)
(-1.22203e+06 -1.09697e+07 -2.14607e-10 4.88104e+06 6.51321e-11 -469071)
(-907537 -1.10523e+07 9.33734e-11 4.56654e+06 3.03786e-10 -469071)
(-590809 -1.1126e+07 2.27068e-10 4.24982e+06 -2.8371e-10 -469071)
(-272107 -1.11906e+07 -2.01358e-10 3.93112e+06 -1.67063e-10 -469071)
(48308.4 -1.1246e+07 -1.15904e-10 3.6107e+06 1.39951e-10 -469071)
(370177 -1.12923e+07 -2.94019e-10 3.28883e+06 -2.58468e-10 -469071)
(693236 -1.13294e+07 -1.69058e-10 2.96577e+06 -3.97969e-10 -469071)
(1.01722e+06 -1.13572e+07 -2.19147e-10 2.64179e+06 4.42183e-11 -469071)
(1.34187e+06 -1.13758e+07 -4.41125e-10 2.31714e+06 8.06229e-11 -469071)
(1.66691e+06 -1.1385e+07 5.08564e-10 1.99209e+06 -5.192e-10 -469071)
(1.99209e+06 -1.1385e+07 4.44032e-10 1.66692e+06 -6.71975e-11 -469071)
(2.31714e+06 -1.13758e+07 -8.89254e-10 1.34187e+06 1.22367e-10 -469071)
(2.64179e+06 -1.13572e+07 -4.50459e-11 1.01722e+06 2.18258e-10 -469071)
(2.96577e+06 -1.13294e+07 -8.15316e-11 693236 -6.31761e-10 -469071)
(3.28883e+06 -1.12923e+07 1.73483e-10 370177 1.97345e-10 -469071)
(3.6107e+06 -1.1246e+07 -4.46606e-10 48308.5 3.66239e-11 -469071)
(3.93112e+06 -1.11906e+07 2.50385e-10 -272107 3.01785e-10 -469071)
(4.24982e+06 -1.1126e+07 3.73096e-11 -590809 -5.32833e-10 -469071)
(4.56654e+06 -1.10523e+07 2.23306e-10 -907536 -9.46835e-12 -469071)
(4.88104e+06 -1.09697e+07 -2.09327e-10 -1.22203e+06 3.25156e-10 -469071)
(5.19305e+06 -1.08781e+07 3.1059e-10 -1.53404e+06 4.21135e-10 -469071)
(5.50231e+06 -1.07776e+07 -7.52951e-11 -1.8433e+06 -1.05206e-10 -469071)
(5.80858e+06 -1.06683e+07 -1.32999e-12 -2.14957e+06 -1.91555e-12 -469071)
(6.1116e+06 -1.05503e+07 -1.45144e-10 -2.45259e+06 -2.15554e-10 -469071)
(6.41113e+06 -1.04237e+07 -3.66929e-10 -2.75212e+06 -2.29701e-10 -469071)
(6.70692e+06 -1.02887e+07 3.06446e-10 -3.04791e+06 -1.95301e-10 -469071)
(6.99874e+06 -1.01452e+07 3.95478e-10 -3.33973e+06 -3.97858e-10 -469071)
(7.28633e+06 -9.99344e+06 -4.45455e-10 -3.62733e+06 -3.86272e-11 -469071)
(7.56948e+06 -9.83354e+06 -3.43745e-10 -3.91047e+06 4.96006e-10 -469071)
(7.84795e+06 -9.66562e+06 2.23217e-10 -4.18894e+06 2.77046e-11 -469071)
(8.1215e+06 -9.48981e+06 5.74469e-13 -4.4625e+06 1.07016e-12 -469071)
(8.38993e+06 -9.30627e+06 1.61448e-10 -4.73092e+06 -8.33498e-11 -469071)
(8.65301e+06 -9.11513e+06 4.87028e-10 -4.994e+06 -2.4478e-10 -469071)
(8.91051e+06 -8.91656e+06 5.7224e-11 -5.25151e+06 1.18517e-10 -469071)
(9.16225e+06 -8.71072e+06 -2.19077e-10 -5.50324e+06 3.90526e-10 -469071)
(9.408e+06 -8.49777e+06 5.33594e-11 -5.74899e+06 1.19084e-10 -469071)
(9.64757e+06 -8.2779e+06 -1.55441e-10 -5.98857e+06 -3.60615e-10 -469071)
(9.88077e+06 -8.05127e+06 -1.18516e-10 -6.22176e+06 1.88665e-10 -469071)
(1.01074e+07 -7.81807e+06 6.9106e-13 -6.44839e+06 1.73816e-12 -469071)
(1.03273e+07 -7.5785e+06 1.70096e-10 -6.66827e+06 -6.38807e-11 -469071)
(1.05402e+07 -7.33274e+06 -4.51444e-11 -6.88122e+06 -1.23728e-10 -469071)
(1.07461e+07 -7.08101e+06 -1.71667e-10 -7.08706e+06 5.95249e-11 -469071)
(1.09446e+07 -6.8235e+06 3.8488e-10 -7.28563e+06 5.69142e-12 -469071)
(1.11358e+07 -6.56043e+06 1.60777e-12 -7.47676e+06 5.07112e-12 -469071)
(1.13193e+07 -6.292e+06 -4.85002e-10 -7.66031e+06 2.79691e-10 -469071)
(1.14951e+07 -6.01844e+06 1.38582e-10 -7.83611e+06 -1.76261e-10 -469071)
(1.1663e+07 -5.73998e+06 3.1255e-10 -8.00403e+06 4.59616e-10 -469071)
(1.18229e+07 -5.45683e+06 -3.25718e-11 -8.16393e+06 -1.27615e-10 -469071)
(1.19747e+07 -5.16923e+06 -4.13858e-10 -8.31568e+06 -1.67217e-10 -469071)
(1.21182e+07 -4.87742e+06 3.82268e-10 -8.45916e+06 4.35264e-11 -469071)
(1.22533e+07 -4.58162e+06 2.32243e-10 -8.59424e+06 2.21752e-10 -469071)
(1.23798e+07 -4.28209e+06 -5.3526e-10 -8.72082e+06 1.03012e-10 -469071)
(1.24978e+07 -3.97907e+06 0 -8.8388e+06 0 -469071)
(1.26071e+07 -3.67281e+06 8.59282e-11 -8.94808e+06 5.18539e-10 -469071)
(1.27076e+07 -3.36354e+06 5.38749e-10 -9.04856e+06 -8.28524e-11 -469071)
(1.27992e+07 -3.05154e+06 -2.1481e-10 -9.14018e+06 -2.3027e-10 -469071)
(1.28819e+07 -2.73704e+06 -5.25513e-10 -9.22284e+06 1.93542e-10 -469071)
(1.29555e+07 -2.42031e+06 1.66668e-10 -9.2965e+06 -1.49492e-10 -469071)
(1.30201e+07 -2.10161e+06 1.68622e-10 -9.36107e+06 -1.48863e-10 -469071)
(1.30755e+07 -1.7812e+06 1.70869e-10 -9.41652e+06 -1.44672e-10 -469071)
(1.31218e+07 -1.45933e+06 -1.67592e-11 -9.4628e+06 -2.60445e-10 -469071)
(1.31589e+07 -1.13627e+06 6.51925e-12 -9.49987e+06 1.30329e-10 -469071)
(1.31867e+07 -812283 0 -9.5277e+06 0 -469071)
(1.32053e+07 -487635 -5.58983e-12 -9.54626e+06 -2.60924e-10 -469071)
(1.32146e+07 -162589 0 -9.55554e+06 0 -469071)
(-9.22672e+06 -158042 1.57857e-12 1.29066e+07 -1.75169e-10 -464425)
(-9.2177e+06 -473998 1.6855e-12 1.28976e+07 3.61081e-14 -464425)
(-9.19965e+06 -789566 -5.12691e-10 1.28795e+07 -1.83108e-11 -464425)
(-9.1726e+06 -1.10449e+06 -2.63327e-10 1.28525e+07 1.62223e-10 -464425)
(-9.13657e+06 -1.41852e+06 3.8314e-10 1.28164e+07 2.46544e-11 -464425)
(-9.09159e+06 -1.73138e+06 -2.25125e-10 1.27714e+07 -3.69154e-10 -464425)
(-9.03769e+06 -2.04284e+06 -1.29323e-10 1.27175e+07 -1.20383e-11 -464425)
(-8.97492e+06 -2.35263e+06 -2.89394e-10 1.26548e+07 3.21258e-10 -464425)
(-8.90333e+06 -2.6605e+06 1.05205e-10 1.25832e+07 1.89308e-10 -464425)
(-8.82297e+06 -2.9662e+06 2.57887e-10 1.25028e+07 3.52011e-11 -464425)
(-8.73392e+06 -3.26948e+06 7.66505e-11 1.24138e+07 -5.19912e-10 -464425)
(-8.63624e+06 -3.57009e+06 5.99561e-11 1.23161e+07 -3.45195e-10 -464425)
(-8.53002e+06 -3.86779e+06 1.26615e-10 1.22099e+07 7.34862e-10 -464425)
(-8.41535e+06 -4.16234e+06 -3.60436e-11 1.20952e+07 1.71447e-10 -464425)
(-8.2923e+06 -4.45349e+06 7.31723e-11 1.19722e+07 -3.42628e-10 -464425)
(-8.161e+06 -4.74101e+06 2.50502e-10 1.18409e+07 5.63696e-11 -464425)
(-8.02154e+06 -5.02467e+06 1.23515e-10 1.17014e+07 2.96534e-11 -464425)
(-7.87403e+06 -5.30422e+06 -4.08719e-11 1.15539e+07 1.7036e-10 -464425)
(-7.7186e+06 -5.57945e+06 -9.08501e-11 1.13985e+07 3.38369e-10 -464425)
(-7.55537e+06 -5.85013e+06 5.91946e-10 1.12352e+07 -1.95159e-10 -464425)
(-7.38449e+06 -6.11604e+06 3.22833e-12 1.10643e+07 9.73017e-13 -464425)
(-7.20607e+06 -6.37696e+06 1.20594e-10 1.08859e+07 3.82337e-11 -464425)
(-7.02029e+06 -6.63267e+06 4.22982e-10 1.07001e+07 -4.38422e-11 -464425)
(-6.82727e+06 -6.88298e+06 6.30472e-11 1.05071e+07 2.07514e-10 -464425)
(-6.62718e+06 -7.12768e+06 -1.20914e-10 1.0307e+07 -4.41177e-11 -464425)
(-6.42019e+06 -7.36656e+06 -2.37261e-10 1.01001e+07 -9.04287e-11 -464425)
(-6.20646e+06 -7.59943e+06 -6.28479e-11 9.88632e+06 1.63526e-10 -464425)
(-5.98617e+06 -7.8261e+06 6.0576e-13 9.66603e+06 2.50915e-13 -464425)
(-5.7595e+06 -8.04639e+06 3.94015e-10 9.43936e+06 -5.93191e-10 -464425)
(-5.52663e+06 -8.26012e+06 1.89731e-10 9.20649e+06 -1.06943e-10 -464425)
(-5.28775e+06 -8.46711e+06 -1.49342e-10 8.9676e+06 3.16933e-10 -464425)
(-5.04305e+06 -8.6672e+06 -2.10864e-12 8.72291e+06 -1.01812e-12 -464425)
(-4.79274e+06 -8.86021e+06 3.63916e-11 8.4726e+06 2.14114e-10 -464425)
(-4.53703e+06 -9.046e+06 -8.24284e-11 8.21689e+06 1.54584e-10 -464425)
(-4.27611e+06 -9.22442e+06 -1.43667e-10 7.95597e+06 -2.75942e-10 -464425)
(-4.0102e+06 -9.3953e+06 1.97286e-10 7.69006e+06 -9.08147e-11 -464425)
(-3.73952e+06 -9.55853e+06 0 7.41938e+06 0 -464425)
(-3.46429e+06 -9.71396e+06 2.21387e-10 7.14415e+06 1.31355e-10 -464425)
(-3.18474e+06 -9.86146e+06 2.17492e-10 6.8646e+06 1.33279e-10 -464425)
(-2.90108e+06 -1.00009e+07 1.83902e-10 6.58094e+06 -2.98233e-10 -464425)
(-2.61356e+06 -1.01322e+07 2.16421e-10 6.29342e+06 1.41279e-10 -464425)
(-2.32241e+06 -1.02553e+07 -1.97083e-10 6.00227e+06 2.89669e-10 -464425)
(-2.02786e+06 -1.037e+07 -1.98429e-10 5.70772e+06 2.88748e-10 -464425)
(-1.73016e+06 -1.04762e+07 2.06592e-10 5.41002e+06 1.47856e-10 -464425)
(-1.42955e+06 -1.05738e+07 -2.05112e-10 5.10941e+06 6.63925e-11 -464425)
(-1.12627e+06 -1.06629e+07 -1.23045e-12 4.80613e+06 -9.34886e-13 -464425)
(-820566 -1.07433e+07 3.12159e-10 4.50043e+06 2.1845e-11 -464425)
(-512697 -1.08148e+07 -3.20456e-10 4.19256e+06 1.91714e-10 -464425)
(-202908 -1.08776e+07 4.46624e-10 3.88277e+06 -5.39922e-10 -464425)
(108547 -1.09315e+07 1.77113e-11 3.57131e+06 -2.15245e-10 -464425)
(421414 -1.09765e+07 -2.52205e-10 3.25844e+06 4.78011e-10 -464425)
(735438 -1.10125e+07 -2.14545e-11 2.94442e+06 2.16819e-10 -464425)
(1.05036e+06 -1.10396e+07 -1.18271e-10 2.6295e+06 1.29232e-10 -464425)
(1.36593e+06 -1.10576e+07 1.20578e-10 2.31393e+06 -1.27076e-10 -464425)
(1.68189e+06 -1.10667e+07 4.28448e-10 1.99797e+06 -6.96004e-11 -464425)
(1.99797e+06 -1.10667e+07 -5.50367e-10 1.68189e+06 1.90291e-10 -464425)
(2.31393e+06 -1.10576e+07 -1.27335e-10 1.36593e+06 1.20308e-10 -464425)
(2.6295e+06 -1.10396e+07 4.33333e-10 1.05036e+06 -4.87197e-11 -464425)
(2.94442e+06 -1.10125e+07 4.2639e-11 735438 -2.13978e-10 -464425)
(3.25844e+06 -1.09765e+07 2.22619e-12 421414 2.53239e-12 -464425)
(3.57131e+06 -1.09315e+07 8.21617e-11 108547 9.6199e-11 -464425)
(3.88277e+06 -1.08776e+07 1.34936e-10 -202908 -1.1171e-10 -464425)
(4.19256e+06 -1.08148e+07 -5.61662e-11 -512696 2.09481e-10 -464425)
(4.50043e+06 -1.07433e+07 1.38157e-10 -820566 -1.07701e-10 -464425)
(4.80613e+06 -1.06629e+07 4.17938e-10 -1.12627e+06 -3.18605e-10 -464425)
(5.10941e+06 -1.05738e+07 -1.28949e-10 -1.42955e+06 4.15425e-10 -464425)
(5.41002e+06 -1.04762e+07 -4.28446e-10 -1.73016e+06 3.04331e-10 -464425)
(5.70772e+06 -1.037e+07 1.47107e-10 -2.02786e+06 2.11875e-10 -464425)
(6.00227e+06 -1.02553e+07 -1.43413e-10 -2.32241e+06 -2.12983e-10 -464425)
(6.29342e+06 -1.01322e+07 1.40997e-10 -2.61356e+06 2.15989e-10 -464425)
(6.58094e+06 -1.00009e+07 6.85362e-11 -2.90108e+06 1.08337e-10 -464425)
(6.8646e+06 -9.86146e+06 -1.3301e-10 -3.18474e+06 -2.17053e-10 -464425)
(7.14415e+06 -9.71396e+06 2.03985e-11 -3.46429e+06 -3.08921e-10 -464425)
(7.41938e+06 -9.55853e+06 4.31684e-10 -3.73952e+06 4.82175e-11 -464425)
(7.69006e+06 -9.3953e+06 6.19212e-11 -4.0102e+06 1.115e-10 -464425)
(7.95597e+06 -9.22442e+06 -6.14302e-11 -4.27611e+06 -1.14436e-10 -464425)
(8.21689e+06 -9.046e+06 5.8712e-11 -4.53703e+06 1.13223e-10 -464425)
(8.4726e+06 -8.86021e+06 -1.15227e-10 -4.79274e+06 -2.30193e-10 -464425)
(8.72291e+06 -8.6672e+06 2.03859e-10 -5.04305e+06 -3.83559e-10 -464425)
(8.9676e+06 -8.46711e+06 4.34643e-13 -5.28775e+06 9.3404e-13 -464425)
(9.20649e+06 -8.26012e+06 -4.79929e-10 -5.52663e+06 2.14125e-10 -464425)
(9.43936e+06 -8.04639e+06 -3.21273e-10 -5.7595e+06 1.39758e-10 -464425)
(9.66603e+06 -7.8261e+06 4.84808e-10 -5.98617e+06 -2.02842e-10 -464425)
(9.88632e+06 -7.59943e+06 3.73688e-10 -6.20646e+06 -8.39767e-12 -464425)
(1.01001e+07 -7.36656e+06 -4.9137e-10 -6.42019e+06 1.86377e-10 -464425)
(1.0307e+07 -7.12768e+06 -2.52687e-10 -6.62718e+06 -1.81475e-10 -464425)
(1.05071e+07 -6.88298e+06 -8.43877e-11 -6.82727e+06 -2.41958e-10 -464425)
(1.07001e+07 -6.63267e+06 5.38484e-10 -7.02029e+06 -4.62368e-11 -464425)
(1.08859e+07 -6.37696e+06 -7.62692e-11 -7.20607e+06 -2.40564e-10 -464425)
(1.10643e+07 -6.11604e+06 -4.66758e-10 -7.38449e+06 2.72469e-10 -464425)
(1.12352e+07 -5.85013e+06 5.3997e-10 -7.55537e+06 -2.31329e-11 -464425)
(1.13985e+07 -5.57945e+06 7.09226e-13 -7.7186e+06 2.62188e-12 -464425)
(1.15539e+07 -5.30422e+06 -4.03676e-10 -7.87403e+06 -1.64914e-10 -464425)
(1.17014e+07 -5.02467e+06 3.93565e-13 -8.02154e+06 1.63931e-12 -464425)
(1.18409e+07 -4.74101e+06 5.58864e-11 -8.161e+06 2.48355e-10 -464425)
(1.19722e+07 -4.45349e+06 1.19167e-10 -8.2923e+06 -2.8482e-10 -464425)
(1.20952e+07 -4.16234e+06 -1.96653e-10 -8.41535e+06 -9.30869e-11 -464425)
(1.22099e+07 -3.86779e+06 3.6704e-10 -8.53002e+06 6.11416e-11 -464425)
(1.23161e+07 -3.57009e+06 1.93976e-10 -8.63624e+06 9.90341e-11 -464425)
(1.24138e+07 -3.26948e+06 -3.27622e-10 -8.73392e+06 1.76777e-10 -464425)
(1.25028e+07 -2.9662e+06 -3.44981e-11 -8.82297e+06 -2.52737e-10 -464425)
(1.25832e+07 -2.6605e+06 -3.16685e-10 -8.90333e+06 2.97299e-10 -464425)
(1.26548e+07 -2.35263e+06 -3.34642e-10 -8.97492e+06 1.64912e-10 -464425)
(1.27175e+07 -2.04284e+06 1.86382e-10 -9.03769e+06 1.12247e-10 -464425)
(1.27714e+07 -1.73138e+06 3.29167e-10 -9.09159e+06 -2.8295e-10 -464425)
(1.28164e+07 -1.41852e+06 1.74869e-10 -9.13657e+06 -1.04078e-11 -464425)
(1.28525e+07 -1.10449e+06 -1.28606e-11 -9.1726e+06 -2.57101e-10 -464425)
(1.28795e+07 -789566 0 -9.19965e+06 0 -464425)
(1.28976e+07 -473998 0 -9.2177e+06 0 -464425)
(1.29066e+07 -158042 0 -9.22672e+06 0 -464425)
(-8.9641e+06 -154093 -1.27769e-10 1.26161e+07 -9.12287e-13 -456313)
(-8.9553e+06 -462152 -5.62597e-12 1.26073e+07 3.37979e-10 -456313)
(-8.93771e+06 -769835 1.14013e-10 1.25897e+07 3.4231e-10 -456313)
(-8.91134e+06 -1.07689e+06 3.282e-11 1.25633e+07 -6.75248e-10 -456313)
(-8.87621e+06 -1.38307e+06 2.74753e-10 1.25282e+07 -3.21041e-10 -456313)
(-8.83235e+06 -1.68811e+06 -3.05534e-10 1.24843e+07 6.54088e-10 -456313)
(-8.77979e+06 -1.99179e+06 -9.51593e-13 1.24318e+07 -8.85815e-14 -456313)
(-8.71859e+06 -2.29383e+06 2.89559e-10 1.23706e+07 -3.08839e-10 -456313)
(-8.64879e+06 -2.59401e+06 3.70699e-11 1.23008e+07 -3.36006e-10 -456313)
(-8.57044e+06 -2.89207e+06 1.25294e-10 1.22224e+07 1.71023e-11 -456313)
(-8.48362e+06 -3.18777e+06 4.46525e-10 1.21356e+07 4.09316e-10 -456313)
(-8.38838e+06 -3.48087e+06 -2.47623e-10 1.20404e+07 -4.10341e-11 -456313)
(-8.28482e+06 -3.77114e+06 -5.84283e-11 1.19368e+07 3.32938e-10 -456313)
(-8.17301e+06 -4.05832e+06 -3.16871e-12 1.1825e+07 -6.18541e-13 -456313)
(-8.05304e+06 -4.3422e+06 -5.3972e-11 1.1705e+07 -3.56738e-10 -456313)
(-7.92501e+06 -4.62253e+06 0 1.1577e+07 0 -456313)
(-7.78904e+06 -4.8991e+06 -1.24242e-10 1.1441e+07 -2.98279e-11 -456313)
(-7.64522e+06 -5.17167e+06 0 1.12972e+07 0 -456313)
(-7.49367e+06 -5.44002e+06 4.15702e-10 1.11457e+07 -5.87893e-10 -456313)
(-7.33452e+06 -5.70393e+06 2.43169e-10 1.09865e+07 6.95188e-11 -456313)
(-7.16791e+06 -5.9632e+06 -4.40679e-10 1.08199e+07 5.73263e-10 -456313)
(-6.99395e+06 -6.21759e+06 9.84512e-11 1.06459e+07 -3.2339e-10 -456313)
(-6.81281e+06 -6.46692e+06 -2.39405e-10 1.04648e+07 -7.96815e-11 -456313)
(-6.62461e+06 -6.71097e+06 -3.43278e-10 1.02766e+07 5.96256e-10 -456313)
(-6.42953e+06 -6.94955e+06 1.16999e-10 1.00815e+07 4.26894e-11 -456313)
(-6.22771e+06 -7.18246e+06 2.39164e-10 9.87969e+06 -2.70587e-10 -456313)
(-6.01932e+06 -7.40952e+06 1.16621e-10 9.6713e+06 4.63661e-11 -456313)
(-5.80454e+06 -7.63053e+06 2.31893e-10 9.45652e+06 9.60534e-11 -456313)
(-5.58353e+06 -7.84531e+06 -1.17336e-10 9.23551e+06 -5.05771e-11 -456313)
(-5.35647e+06 -8.0537e+06 2.07411e-12 9.00845e+06 9.29374e-13 -456313)
(-5.12356e+06 -8.25552e+06 -1.41148e-10 8.77554e+06 3.07146e-10 -456313)
(-4.88498e+06 -8.4506e+06 -8.6064e-13 8.53696e+06 -4.15544e-13 -456313)
(-4.64093e+06 -8.6388e+06 2.88702e-12 8.29291e+06 1.44514e-12 -456313)
(-4.3916e+06 -8.81994e+06 -2.6845e-10 8.04359e+06 2.41561e-10 -456313)
(-4.13721e+06 -8.9939e+06 2.7103e-10 7.78919e+06 -2.38155e-10 -456313)
(-3.87794e+06 -9.16051e+06 1.65522e-10 7.52992e+06 -2.94727e-10 -456313)
(-3.61403e+06 -9.31966e+06 1.66914e-10 7.26601e+06 -2.93941e-10 -456313)
(-3.34568e+06 -9.47121e+06 8.21922e-13 6.99766e+06 4.87667e-13 -456313)
(-3.07311e+06 -9.61503e+06 -5.69182e-10 6.72509e+06 4.44088e-10 -456313)
(-2.79654e+06 -9.751e+06 1.78542e-10 6.44853e+06 -2.87034e-10 -456313)
(-2.51621e+06 -9.87903e+06 -2.32539e-11 6.16819e+06 -4.1885e-10 -456313)
(-2.23233e+06 -9.999e+06 -1.90136e-10 5.88431e+06 2.79481e-10 -456313)
(-1.94515e+06 -1.01108e+07 0 5.59713e+06 0 -456313)
(-1.65488e+06 -1.02144e+07 8.69714e-12 5.30686e+06 4.21897e-10 -456313)
(-1.36178e+06 -1.03096e+07 -7.69153e-13 5.01376e+06 -5.67256e-13 -456313)
(-1.06608e+06 -1.03964e+07 7.07232e-10 4.71806e+06 1.12828e-10 -456313)
(-768020 -1.04748e+07 -2.07047e-10 4.42e+06 2.67195e-10 -456313)
(-467843 -1.05446e+07 1.94695e-10 4.11982e+06 1.56895e-10 -456313)
(-165796 -1.06058e+07 1.95655e-10 3.81778e+06 1.62331e-10 -456313)
(137875 -1.06583e+07 -1.91588e-10 3.5141e+06 -1.63632e-10 -456313)
(442924 -1.07022e+07 3.18645e-10 3.20906e+06 -1.69947e-10 -456313)
(749100 -1.07373e+07 9.30644e-11 2.90288e+06 8.41975e-11 -456313)
(1.05616e+06 -1.07637e+07 -2.30816e-10 2.59583e+06 2.46948e-10 -456313)
(1.36384e+06 -1.07813e+07 1.80554e-10 2.28814e+06 1.7298e-10 -456313)
(1.6719e+06 -1.07901e+07 3.27828e-10 1.98008e+06 -1.51479e-10 -456313)
(1.98008e+06 -1.07901e+07 0 1.6719e+06 0 -456313)
(2.28814e+06 -1.07813e+07 3.47283e-10 1.36384e+06 3.62488e-10 -456313)
(2.59583e+06 -1.07637e+07 -1.60779e-10 1.05616e+06 3.23368e-10 -456313)
(2.90288e+06 -1.07373e+07 1.67754e-10 749100 1.8542e-10 -456313)
(3.20906e+06 -1.07022e+07 2.54939e-10 442924 -2.21963e-10 -456313)
(3.5141e+06 -1.06583e+07 -9.29743e-11 137875 4.11617e-10 -456313)
(3.81778e+06 -1.06058e+07 -1.62331e-10 -165796 -1.95655e-10 -456313)
(4.11982e+06 -1.05446e+07 5.01879e-10 -467843 8.40864e-11 -456313)
(4.42e+06 -1.04748e+07 7.73438e-11 -768020 9.88339e-11 -456313)
(4.71806e+06 -1.03964e+07 0 -1.06608e+06 0 -456313)
(5.01376e+06 -1.03096e+07 -1.4898e-10 -1.36178e+06 -2.02004e-10 -456313)
(5.30686e+06 -1.02144e+07 2.93483e-10 -1.65488e+06 4.10071e-10 -456313)
(5.59713e+06 -1.01108e+07 -6.07152e-11 -1.94515e+06 5.05239e-10 -456313)
(5.88431e+06 -9.999e+06 -1.80324e-12 -2.23233e+06 -2.67799e-12 -456313)
(6.16819e+06 -9.87903e+06 4.90982e-10 -2.51621e+06 1.33751e-10 -456313)
(6.44853e+06 -9.751e+06 -2.86012e-10 -2.79654e+06 1.80157e-10 -456313)
(6.72509e+06 -9.61503e+06 6.50741e-11 -3.07311e+06 1.06191e-10 -456313)
(6.99766e+06 -9.47121e+06 4.19605e-10 -3.34568e+06 4.47691e-11 -456313)
(7.26601e+06 -9.31966e+06 0 -3.61403e+06 0 -456313)
(7.52992e+06 -9.16051e+06 -4.87976e-11 -3.87794e+06 6.08361e-10 -456313)
(7.78919e+06 -8.9939e+06 -4.52022e-13 -4.13721e+06 -8.42051e-13 -456313)
(8.04359e+06 -8.81994e+06 1.48622e-12 -4.3916e+06 2.86609e-12 -456313)
(8.29291e+06 -8.6388e+06 -4.27792e-13 -4.64093e+06 -8.54617e-13 -456313)
(8.53696e+06 -8.4506e+06 3.05099e-10 -4.88498e+06 -1.45519e-10 -456313)
(8.77554e+06 -8.25552e+06 -1.05897e-10 -5.12356e+06 -2.27567e-10 -456313)
(9.00845e+06 -8.0537e+06 1.03566e-10 -5.35647e+06 2.3113e-10 -456313)
(9.23551e+06 -7.84531e+06 1.49932e-10 -5.58353e+06 3.47834e-10 -456313)