/*--------------------------------*- C++ -*----------------------------------*\
| =========                 |                                                 |
| \\      /  F ield         | OpenFOAM: The Open Source CFD Toolbox           |
|  \\    /   O peration     | Version:  2312                                  |
|   \\  /    A nd           | Website:  www.openfoam.com                      |
|    \\/     M anipulation  |                                                 |
\*---------------------------------------------------------------------------*/
FoamFile
{
    version     2.0;
    format      ascii;
    arch        "LSB;label=32;scalar=64";
    class       volVectorField;
    location    "10";
    object      U;
}
// * * * * * * * * * * * * * * * * * * * * * * * * * * * * * * * * * * * * * //

dimensions      [0 1 -1 0 0 0 0];

internalField   nonuniform List<vector> 
12870
(
(0.024966 0.00017826 0)
(0.0249609 0.000534743 0)
(0.0249507 0.000891117 0)
(0.0249355 0.00124731 0)
(0.0249151 0.00160325 0)
(0.0248897 0.00195886 0)
(0.0248592 0.00231407 0)
(0.0248236 0.00266881 0)
(0.0247829 0.00302301 0)
(0.0247372 0.00337659 0)
(0.0246865 0.00372948 0)
(0.0246307 0.00408161 0)
(0.0245699 0.00443291 0)
(0.0245041 0.0047833 0)
(0.0244333 0.00513272 0)
(0.0243576 0.00548109 0)
(0.0242768 0.00582834 0)
(0.0241911 0.00617441 0)
(0.0241005 0.00651922 0)
(0.0240049 0.0068627 0)
(0.0239045 0.00720477 0)
(0.0237992 0.00754538 0)
(0.023689 0.00788445 0)
(0.023574 0.00822192 0)
(0.0234542 0.0085577 0)
(0.0233296 0.00889174 0)
(0.0232002 0.00922397 0)
(0.0230662 0.00955432 0)
(0.0229274 0.00988272 0)
(0.0227839 0.0102091 0)
(0.0226358 0.0105334 0)
(0.0224831 0.0108556 0)
(0.0223258 0.0111755 0)
(0.0221639 0.0114932 0)
(0.0219976 0.0118085 0)
(0.0218267 0.0121214 0)
(0.0216514 0.0124318 0)
(0.0214717 0.0127397 0)
(0.0212876 0.013045 0)
(0.0210991 0.0133477 0)
(0.0209064 0.0136476 0)
(0.0207093 0.0139447 0)
(0.0205081 0.014239 0)
(0.0203027 0.0145304 0)
(0.0200931 0.0148189 0)
(0.0198795 0.0151043 0)
(0.0196618 0.0153866 0)
(0.0194401 0.0156658 0)
(0.0192144 0.0159418 0)
(0.0189848 0.0162145 0)
(0.0187513 0.016484 0)
(0.018514 0.01675 0)
(0.0182729 0.0170127 0)
(0.0180281 0.0172719 0)
(0.0177797 0.0175276 0)
(0.0175276 0.0177797 0)
(0.0172719 0.0180281 0)
(0.0170127 0.0182729 0)
(0.01675 0.018514 0)
(0.016484 0.0187513 0)
(0.0162145 0.0189848 0)
(0.0159418 0.0192144 0)
(0.0156658 0.0194401 0)
(0.0153866 0.0196618 0)
(0.0151043 0.0198795 0)
(0.0148189 0.0200931 0)
(0.0145304 0.0203027 0)
(0.014239 0.0205081 0)
(0.0139447 0.0207093 0)
(0.0136476 0.0209064 0)
(0.0133477 0.0210991 0)
(0.013045 0.0212876 0)
(0.0127397 0.0214717 0)
(0.0124318 0.0216514 0)
(0.0121214 0.0218267 0)
(0.0118085 0.0219976 0)
(0.0114932 0.0221639 0)
(0.0111755 0.0223258 0)
(0.0108556 0.0224831 0)
(0.0105334 0.0226358 0)
(0.0102091 0.0227839 0)
(0.00988272 0.0229274 0)
(0.00955432 0.0230662 0)
(0.00922397 0.0232002 0)
(0.00889174 0.0233296 0)
(0.0085577 0.0234542 0)
(0.00822192 0.023574 0)
(0.00788445 0.023689 0)
(0.00754538 0.0237992 0)
(0.00720477 0.0239045 0)
(0.0068627 0.0240049 0)
(0.00651922 0.0241005 0)
(0.00617441 0.0241911 0)
(0.00582834 0.0242768 0)
(0.00548109 0.0243576 0)
(0.00513272 0.0244333 0)
(0.0047833 0.0245041 0)
(0.00443291 0.0245699 0)
(0.00408161 0.0246307 0)
(0.00372948 0.0246865 0)
(0.00337659 0.0247372 0)
(0.00302301 0.0247829 0)
(0.00266881 0.0248236 0)
(0.00231407 0.0248592 0)
(0.00195886 0.0248897 0)
(0.00160325 0.0249151 0)
(0.00124731 0.0249355 0)
(0.000891117 0.0249507 0)
(0.000534743 0.0249609 0)
(0.00017826 0.024966 0)
(0.0247307 0.00017658 0)
(0.0247256 0.000529703 0)
(0.0247155 0.000882718 0)
(0.0247004 0.00123555 0)
(0.0246803 0.00158814 0)
(0.0246551 0.0019404 0)
(0.0246248 0.00229226 0)
(0.0245896 0.00264366 0)
(0.0245493 0.00299451 0)
(0.0245041 0.00334476 0)
(0.0244538 0.00369432 0)
(0.0243986 0.00404314 0)
(0.0243384 0.00439112 0)
(0.0242732 0.00473821 0)
(0.024203 0.00508434 0)
(0.024128 0.00542943 0)
(0.024048 0.00577341 0)
(0.0239631 0.00611621 0)
(0.0238733 0.00645777 0)
(0.0237787 0.00679801 0)
(0.0236792 0.00713686 0)
(0.0235748 0.00747426 0)
(0.0234657 0.00781014 0)
(0.0233518 0.00814442 0)
(0.0232331 0.00847704 0)
(0.0231097 0.00880793 0)
(0.0229816 0.00913703 0)
(0.0228487 0.00946426 0)
(0.0227113 0.00978956 0)
(0.0225692 0.0101129 0)
(0.0224225 0.0104341 0)
(0.0222712 0.0107532 0)
(0.0221154 0.0110702 0)
(0.021955 0.0113848 0)
(0.0217902 0.0116972 0)
(0.021621 0.0120071 0)
(0.0214473 0.0123146 0)
(0.0212693 0.0126196 0)
(0.0210869 0.0129221 0)
(0.0209002 0.0132219 0)
(0.0207093 0.013519 0)
(0.0205141 0.0138133 0)
(0.0203148 0.0141048 0)
(0.0201113 0.0143935 0)
(0.0199037 0.0146792 0)
(0.0196921 0.0149619 0)
(0.0194765 0.0152416 0)
(0.0192568 0.0155181 0)
(0.0190333 0.0157915 0)
(0.0188058 0.0160617 0)
(0.0185746 0.0163286 0)
(0.0183395 0.0165922 0)
(0.0181007 0.0168524 0)
(0.0178582 0.0171091 0)
(0.0176121 0.0173624 0)
(0.0173624 0.0176121 0)
(0.0171091 0.0178582 0)
(0.0168524 0.0181007 0)
(0.0165922 0.0183395 0)
(0.0163286 0.0185746 0)
(0.0160617 0.0188058 0)
(0.0157915 0.0190333 0)
(0.0155181 0.0192568 0)
(0.0152416 0.0194765 0)
(0.0149619 0.0196921 0)
(0.0146792 0.0199037 0)
(0.0143935 0.0201113 0)
(0.0141048 0.0203148 0)
(0.0138133 0.0205141 0)
(0.013519 0.0207093 0)
(0.0132219 0.0209002 0)
(0.0129221 0.0210869 0)
(0.0126196 0.0212693 0)
(0.0123146 0.0214473 0)
(0.0120071 0.021621 0)
(0.0116972 0.0217902 0)
(0.0113848 0.021955 0)
(0.0110702 0.0221154 0)
(0.0107532 0.0222712 0)
(0.0104341 0.0224225 0)
(0.0101129 0.0225692 0)
(0.00978956 0.0227113 0)
(0.00946426 0.0228487 0)
(0.00913703 0.0229816 0)
(0.00880793 0.0231097 0)
(0.00847704 0.0232331 0)
(0.00814442 0.0233518 0)
(0.00781014 0.0234657 0)
(0.00747426 0.0235748 0)
(0.00713686 0.0236792 0)
(0.00679801 0.0237787 0)
(0.00645777 0.0238733 0)
(0.00611621 0.0239631 0)
(0.00577341 0.024048 0)
(0.00542943 0.024128 0)
(0.00508434 0.024203 0)
(0.00473821 0.0242732 0)
(0.00439112 0.0243384 0)
(0.00404314 0.0243986 0)
(0.00369432 0.0244538 0)
(0.00334476 0.0245041 0)
(0.00299451 0.0245493 0)
(0.00264366 0.0245896 0)
(0.00229226 0.0246248 0)
(0.0019404 0.0246551 0)
(0.00158814 0.0246803 0)
(0.00123555 0.0247004 0)
(0.000882718 0.0247155 0)
(0.000529703 0.0247256 0)
(0.00017658 0.0247307 0)
(0.0245068 0.000174981 0)
(0.0245018 0.000524907 0)
(0.0244918 0.000874726 0)
(0.0244768 0.00122437 0)
(0.0244568 0.00157376 0)
(0.0244319 0.00192283 0)
(0.0244019 0.00227151 0)
(0.024367 0.00261972 0)
(0.0243271 0.0029674 0)
(0.0242822 0.00331448 0)
(0.0242324 0.00366088 0)
(0.0241777 0.00400653 0)
(0.024118 0.00435137 0)
(0.0240534 0.00469532 0)
(0.0239839 0.00503831 0)
(0.0239095 0.00538027 0)
(0.0238303 0.00572114 0)
(0.0237461 0.00606084 0)
(0.0236572 0.0063993 0)
(0.0235634 0.00673646 0)
(0.0234648 0.00707225 0)
(0.0233614 0.00740659 0)
(0.0232533 0.00773943 0)
(0.0231404 0.00807068 0)
(0.0230228 0.00840029 0)
(0.0229005 0.00872819 0)
(0.0227735 0.00905431 0)
(0.0226419 0.00937858 0)
(0.0225057 0.00970093 0)
(0.0223648 0.0100213 0)
(0.0222195 0.0103397 0)
(0.0220695 0.0106559 0)
(0.0219151 0.0109699 0)
(0.0217563 0.0112818 0)
(0.0215929 0.0115913 0)
(0.0214252 0.0118984 0)
(0.0212531 0.0122032 0)
(0.0210767 0.0125054 0)
(0.020896 0.0128051 0)
(0.020711 0.0131022 0)
(0.0205218 0.0133966 0)
(0.0203284 0.0136882 0)
(0.0201309 0.0139771 0)
(0.0199292 0.0142632 0)
(0.0197235 0.0145463 0)
(0.0195138 0.0148264 0)
(0.0193001 0.0151036 0)
(0.0190825 0.0153776 0)
(0.0188609 0.0156486 0)
(0.0186356 0.0159163 0)
(0.0184064 0.0161808 0)
(0.0181735 0.016442 0)
(0.0179368 0.0166998 0)
(0.0176965 0.0169542 0)
(0.0174526 0.0172052 0)
(0.0172052 0.0174526 0)
(0.0169542 0.0176965 0)
(0.0166998 0.0179368 0)
(0.016442 0.0181735 0)
(0.0161808 0.0184064 0)
(0.0159163 0.0186356 0)
(0.0156486 0.0188609 0)
(0.0153776 0.0190825 0)
(0.0151036 0.0193001 0)
(0.0148264 0.0195138 0)
(0.0145463 0.0197235 0)
(0.0142632 0.0199292 0)
(0.0139771 0.0201309 0)
(0.0136882 0.0203284 0)
(0.0133966 0.0205218 0)
(0.0131022 0.020711 0)
(0.0128051 0.020896 0)
(0.0125054 0.0210767 0)
(0.0122032 0.0212531 0)
(0.0118984 0.0214252 0)
(0.0115913 0.0215929 0)
(0.0112818 0.0217563 0)
(0.0109699 0.0219151 0)
(0.0106559 0.0220695 0)
(0.0103397 0.0222195 0)
(0.0100213 0.0223648 0)
(0.00970093 0.0225057 0)
(0.00937858 0.0226419 0)
(0.00905431 0.0227735 0)
(0.00872819 0.0229005 0)
(0.00840029 0.0230228 0)
(0.00807068 0.0231404 0)
(0.00773943 0.0232533 0)
(0.00740659 0.0233614 0)
(0.00707225 0.0234648 0)
(0.00673646 0.0235634 0)
(0.0063993 0.0236572 0)
(0.00606084 0.0237461 0)
(0.00572114 0.0238303 0)
(0.00538027 0.0239095 0)
(0.00503831 0.0239839 0)
(0.00469532 0.0240534 0)
(0.00435137 0.024118 0)
(0.00400653 0.0241777 0)
(0.00366088 0.0242324 0)
(0.00331448 0.0242822 0)
(0.0029674 0.0243271 0)
(0.00261972 0.024367 0)
(0.00227151 0.0244019 0)
(0.00192283 0.0244319 0)
(0.00157376 0.0244568 0)
(0.00122437 0.0244768 0)
(0.000874726 0.0244918 0)
(0.000524907 0.0245018 0)
(0.000174981 0.0245068 0)
(0.0242878 0.000173418 0)
(0.0242829 0.000520218 0)
(0.024273 0.000866912 0)
(0.0242581 0.00121343 0)
(0.0242383 0.0015597 0)
(0.0242136 0.00190565 0)
(0.0241839 0.00225121 0)
(0.0241493 0.00259632 0)
(0.0241098 0.00294089 0)
(0.0240653 0.00328487 0)
(0.0240159 0.00362817 0)
(0.0239617 0.00397074 0)
(0.0239025 0.00431249 0)
(0.0238385 0.00465337 0)
(0.0237697 0.0049933 0)
(0.0236959 0.00533221 0)
(0.0236174 0.00567003 0)
(0.023534 0.00600669 0)
(0.0234458 0.00634214 0)
(0.0233529 0.00667628 0)
(0.0232552 0.00700907 0)
(0.0231527 0.00734043 0)
(0.0230455 0.00767029 0)
(0.0229336 0.00799858 0)
(0.0228171 0.00832525 0)
(0.0226959 0.00865021 0)
(0.02257 0.00897342 0)
(0.0224396 0.00929479 0)
(0.0223046 0.00961427 0)
(0.022165 0.00993179 0)
(0.022021 0.0102473 0)
(0.0218724 0.0105607 0)
(0.0217194 0.0108719 0)
(0.0215619 0.011181 0)
(0.0214 0.0114877 0)
(0.0212338 0.0117921 0)
(0.0210633 0.0120941 0)
(0.0208884 0.0123937 0)
(0.0207093 0.0126907 0)
(0.020526 0.0129851 0)
(0.0203385 0.0132769 0)
(0.0201468 0.013566 0)
(0.019951 0.0138523 0)
(0.0197512 0.0141357 0)
(0.0195473 0.0144163 0)
(0.0193395 0.014694 0)
(0.0191277 0.0149686 0)
(0.018912 0.0152403 0)
(0.0186925 0.0155088 0)
(0.0184691 0.0157741 0)
(0.018242 0.0160362 0)
(0.0180111 0.0162951 0)
(0.0177766 0.0165506 0)
(0.0175384 0.0168027 0)
(0.0172967 0.0170515 0)
(0.0170515 0.0172967 0)
(0.0168027 0.0175384 0)
(0.0165506 0.0177766 0)
(0.0162951 0.0180111 0)
(0.0160362 0.018242 0)
(0.0157741 0.0184691 0)
(0.0155088 0.0186925 0)
(0.0152403 0.018912 0)
(0.0149686 0.0191277 0)
(0.014694 0.0193395 0)
(0.0144163 0.0195473 0)
(0.0141357 0.0197512 0)
(0.0138523 0.019951 0)
(0.013566 0.0201468 0)
(0.0132769 0.0203385 0)
(0.0129851 0.020526 0)
(0.0126907 0.0207093 0)
(0.0123937 0.0208884 0)
(0.0120941 0.0210633 0)
(0.0117921 0.0212338 0)
(0.0114877 0.0214 0)
(0.011181 0.0215619 0)
(0.0108719 0.0217194 0)
(0.0105607 0.0218724 0)
(0.0102473 0.022021 0)
(0.00993179 0.022165 0)
(0.00961427 0.0223046 0)
(0.00929479 0.0224396 0)
(0.00897342 0.02257 0)
(0.00865021 0.0226959 0)
(0.00832525 0.0228171 0)
(0.00799858 0.0229336 0)
(0.00767029 0.0230455 0)
(0.00734043 0.0231527 0)
(0.00700907 0.0232552 0)
(0.00667628 0.0233529 0)
(0.00634214 0.0234458 0)
(0.00600669 0.023534 0)
(0.00567003 0.0236174 0)
(0.00533221 0.0236959 0)
(0.0049933 0.0237697 0)
(0.00465337 0.0238385 0)
(0.00431249 0.0239025 0)
(0.00397074 0.0239617 0)
(0.00362817 0.0240159 0)
(0.00328487 0.0240653 0)
(0.00294089 0.0241098 0)
(0.00259632 0.0241493 0)
(0.00225121 0.0241839 0)
(0.00190565 0.0242136 0)
(0.0015597 0.0242383 0)
(0.00121343 0.0242581 0)
(0.000866912 0.024273 0)
(0.000520218 0.0242829 0)
(0.000173418 0.0242878 0)
(0.0240769 0.000171911 0)
(0.0240719 0.000515699 0)
(0.0240621 0.000859381 0)
(0.0240474 0.00120289 0)
(0.0240278 0.00154615 0)
(0.0240032 0.0018891 0)
(0.0239738 0.00223166 0)
(0.0239395 0.00257376 0)
(0.0239003 0.00291534 0)
(0.0238562 0.00325633 0)
(0.0238073 0.00359665 0)
(0.0237535 0.00393624 0)
(0.0236949 0.00427503 0)
(0.0236314 0.00461295 0)
(0.0235632 0.00494992 0)
(0.0234901 0.00528589 0)
(0.0234122 0.00562077 0)
(0.0233296 0.00595451 0)
(0.0232421 0.00628704 0)
(0.02315 0.00661828 0)
(0.0230531 0.00694818 0)
(0.0229516 0.00727666 0)
(0.0228453 0.00760365 0)
(0.0227344 0.0079291 0)
(0.0226189 0.00825292 0)
(0.0224987 0.00857507 0)
(0.022374 0.00889546 0)
(0.0222447 0.00921405 0)
(0.0221108 0.00953075 0)
(0.0219725 0.00984551 0)
(0.0218297 0.0101583 0)
(0.0216824 0.0104689 0)
(0.0215307 0.0107775 0)
(0.0213746 0.0110838 0)
(0.0212141 0.0113879 0)
(0.0210494 0.0116897 0)
(0.0208803 0.0119891 0)
(0.020707 0.012286 0)
(0.0205294 0.0125804 0)
(0.0203477 0.0128723 0)
(0.0201618 0.0131615 0)
(0.0199718 0.0134481 0)
(0.0197777 0.0137319 0)
(0.0195796 0.0140129 0)
(0.0193775 0.0142911 0)
(0.0191715 0.0145663 0)
(0.0189615 0.0148386 0)
(0.0187477 0.0151079 0)
(0.0185301 0.015374 0)
(0.0183086 0.0156371 0)
(0.0180835 0.0158969 0)
(0.0178546 0.0161535 0)
(0.0176222 0.0164068 0)
(0.0173861 0.0166568 0)
(0.0171465 0.0169033 0)
(0.0169033 0.0171465 0)
(0.0166568 0.0173861 0)
(0.0164068 0.0176222 0)
(0.0161535 0.0178546 0)
(0.0158969 0.0180835 0)
(0.0156371 0.0183086 0)
(0.015374 0.0185301 0)
(0.0151079 0.0187477 0)
(0.0148386 0.0189615 0)
(0.0145663 0.0191715 0)
(0.0142911 0.0193775 0)
(0.0140129 0.0195796 0)
(0.0137319 0.0197777 0)
(0.0134481 0.0199718 0)
(0.0131615 0.0201618 0)
(0.0128723 0.0203477 0)
(0.0125804 0.0205294 0)
(0.012286 0.020707 0)
(0.0119891 0.0208803 0)
(0.0116897 0.0210494 0)
(0.0113879 0.0212141 0)
(0.0110838 0.0213746 0)
(0.0107775 0.0215307 0)
(0.0104689 0.0216824 0)
(0.0101583 0.0218297 0)
(0.00984551 0.0219725 0)
(0.00953075 0.0221108 0)
(0.00921405 0.0222447 0)
(0.00889546 0.022374 0)
(0.00857507 0.0224987 0)
(0.00825292 0.0226189 0)
(0.0079291 0.0227344 0)
(0.00760365 0.0228453 0)
(0.00727666 0.0229516 0)
(0.00694818 0.0230531 0)
(0.00661828 0.02315 0)
(0.00628704 0.0232421 0)
(0.00595451 0.0233296 0)
(0.00562077 0.0234122 0)
(0.00528589 0.0234901 0)
(0.00494992 0.0235632 0)
(0.00461295 0.0236314 0)
(0.00427503 0.0236949 0)
(0.00393624 0.0237535 0)
(0.00359665 0.0238073 0)
(0.00325633 0.0238562 0)
(0.00291534 0.0239003 0)
(0.00257376 0.0239395 0)
(0.00223166 0.0239738 0)
(0.0018891 0.0240032 0)
(0.00154615 0.0240278 0)
(0.00120289 0.0240474 0)
(0.000859381 0.0240621 0)
(0.000515699 0.0240719 0)
(0.000171911 0.0240769 0)
(0.0238719 0.000170448 0)
(0.023867 0.000511308 0)
(0.0238572 0.000852064 0)
(0.0238427 0.00119265 0)
(0.0238232 0.00153299 0)
(0.0237989 0.00187301 0)
(0.0237697 0.00221266 0)
(0.0237357 0.00255185 0)
(0.0236968 0.00289052 0)
(0.0236531 0.00322861 0)
(0.0236046 0.00356603 0)
(0.0235513 0.00390273 0)
(0.0234932 0.00423863 0)
(0.0234302 0.00457367 0)
(0.0233625 0.00490777 0)
(0.0232901 0.00524088 0)
(0.0232129 0.00557292 0)
(0.0231309 0.00590381 0)
(0.0230443 0.00623351 0)
(0.0229529 0.00656193 0)
(0.0228569 0.00688902 0)
(0.0227562 0.0072147 0)
(0.0226508 0.00753891 0)
(0.0225408 0.00786159 0)
(0.0224263 0.00818266 0)
(0.0223072 0.00850206 0)
(0.0221835 0.00881973 0)
(0.0220553 0.0091356 0)
(0.0219226 0.0094496 0)
(0.0217854 0.00976168 0)
(0.0216438 0.0100718 0)
(0.0214978 0.0103798 0)
(0.0213474 0.0106857 0)
(0.0211926 0.0109895 0)
(0.0210335 0.011291 0)
(0.0208701 0.0115902 0)
(0.0207025 0.011887 0)
(0.0205307 0.0121814 0)
(0.0203546 0.0124733 0)
(0.0201744 0.0127627 0)
(0.0199901 0.0130495 0)
(0.0198018 0.0133336 0)
(0.0196093 0.013615 0)
(0.0194129 0.0138936 0)
(0.0192125 0.0141694 0)
(0.0190083 0.0144423 0)
(0.0188001 0.0147123 0)
(0.0185881 0.0149792 0)
(0.0183723 0.0152431 0)
(0.0181528 0.0155039 0)
(0.0179295 0.0157616 0)
(0.0177026 0.016016 0)
(0.0174721 0.0162671 0)
(0.0172381 0.016515 0)
(0.0170005 0.0167594 0)
(0.0167594 0.0170005 0)
(0.016515 0.0172381 0)
(0.0162671 0.0174721 0)
(0.016016 0.0177026 0)
(0.0157616 0.0179295 0)
(0.0155039 0.0181528 0)
(0.0152431 0.0183723 0)
(0.0149792 0.0185881 0)
(0.0147123 0.0188001 0)
(0.0144423 0.0190083 0)
(0.0141694 0.0192125 0)
(0.0138936 0.0194129 0)
(0.013615 0.0196093 0)
(0.0133336 0.0198018 0)
(0.0130495 0.0199901 0)
(0.0127627 0.0201744 0)
(0.0124733 0.0203546 0)
(0.0121814 0.0205307 0)
(0.011887 0.0207025 0)
(0.0115902 0.0208701 0)
(0.011291 0.0210335 0)
(0.0109895 0.0211926 0)
(0.0106857 0.0213474 0)
(0.0103798 0.0214978 0)
(0.0100718 0.0216438 0)
(0.00976168 0.0217854 0)
(0.0094496 0.0219226 0)
(0.0091356 0.0220553 0)
(0.00881973 0.0221835 0)
(0.00850206 0.0223072 0)
(0.00818266 0.0224263 0)
(0.00786159 0.0225408 0)
(0.00753891 0.0226508 0)
(0.0072147 0.0227562 0)
(0.00688902 0.0228569 0)
(0.00656193 0.0229529 0)
(0.00623351 0.0230443 0)
(0.00590381 0.0231309 0)
(0.00557292 0.0232129 0)
(0.00524088 0.0232901 0)
(0.00490777 0.0233625 0)
(0.00457367 0.0234302 0)
(0.00423863 0.0234932 0)
(0.00390273 0.0235513 0)
(0.00356603 0.0236046 0)
(0.00322861 0.0236531 0)
(0.00289052 0.0236968 0)
(0.00255185 0.0237357 0)
(0.00221266 0.0237697 0)
(0.00187301 0.0237989 0)
(0.00153299 0.0238232 0)
(0.00119265 0.0238427 0)
(0.000852064 0.0238572 0)
(0.000511308 0.023867 0)
(0.000170448 0.0238719 0)
(0.0236735 0.000169031 0)
(0.0236687 0.000507059 0)
(0.023659 0.000844984 0)
(0.0236445 0.00118274 0)
(0.0236252 0.00152025 0)
(0.0236011 0.00185745 0)
(0.0235722 0.00219427 0)
(0.0235385 0.00253065 0)
(0.0234999 0.0028665 0)
(0.0234566 0.00320178 0)
(0.0234085 0.0035364 0)
(0.0233556 0.0038703 0)
(0.0232979 0.00420341 0)
(0.0232355 0.00453567 0)
(0.0231684 0.004867 0)
(0.0230966 0.00519733 0)
(0.02302 0.00552661 0)
(0.0229387 0.00585476 0)
(0.0228528 0.00618171 0)
(0.0227622 0.00650741 0)
(0.0226669 0.00683178 0)
(0.0225671 0.00715475 0)
(0.0224626 0.00747627 0)
(0.0223536 0.00779626 0)
(0.0222399 0.00811467 0)
(0.0221218 0.00843141 0)
(0.0219992 0.00874644 0)
(0.021872 0.00905969 0)
(0.0217404 0.00937108 0)
(0.0216044 0.00968057 0)
(0.021464 0.00998808 0)
(0.0213191 0.0102936 0)
(0.02117 0.0105969 0)
(0.0210165 0.0108982 0)
(0.0208587 0.0111971 0)
(0.0206967 0.0114939 0)
(0.0205305 0.0117882 0)
(0.0203601 0.0120802 0)
(0.0201855 0.0123697 0)
(0.0200068 0.0126567 0)
(0.019824 0.0129411 0)
(0.0196372 0.0132228 0)
(0.0194464 0.0135019 0)
(0.0192516 0.0137782 0)
(0.0190529 0.0140517 0)
(0.0188503 0.0143223 0)
(0.0186439 0.01459 0)
(0.0184336 0.0148548 0)
(0.0182196 0.0151165 0)
(0.0180019 0.0153751 0)
(0.0177805 0.0156306 0)
(0.0175555 0.0158829 0)
(0.0173269 0.016132 0)
(0.0170948 0.0163777 0)
(0.0168592 0.0166202 0)
(0.0166202 0.0168592 0)
(0.0163777 0.0170948 0)
(0.016132 0.0173269 0)
(0.0158829 0.0175555 0)
(0.0156306 0.0177805 0)
(0.0153751 0.0180019 0)
(0.0151165 0.0182196 0)
(0.0148548 0.0184336 0)
(0.01459 0.0186439 0)
(0.0143223 0.0188503 0)
(0.0140517 0.0190529 0)
(0.0137782 0.0192516 0)
(0.0135019 0.0194464 0)
(0.0132228 0.0196372 0)
(0.0129411 0.019824 0)
(0.0126567 0.0200068 0)
(0.0123697 0.0201855 0)
(0.0120802 0.0203601 0)
(0.0117882 0.0205305 0)
(0.0114939 0.0206967 0)
(0.0111971 0.0208587 0)
(0.0108982 0.0210165 0)
(0.0105969 0.02117 0)
(0.0102936 0.0213191 0)
(0.00998808 0.021464 0)
(0.00968057 0.0216044 0)
(0.00937108 0.0217404 0)
(0.00905969 0.021872 0)
(0.00874644 0.0219992 0)
(0.00843141 0.0221218 0)
(0.00811467 0.0222399 0)
(0.00779626 0.0223536 0)
(0.00747627 0.0224626 0)
(0.00715475 0.0225671 0)
(0.00683178 0.0226669 0)
(0.00650741 0.0227622 0)
(0.00618171 0.0228528 0)
(0.00585476 0.0229387 0)
(0.00552661 0.02302 0)
(0.00519733 0.0230966 0)
(0.004867 0.0231684 0)
(0.00453567 0.0232355 0)
(0.00420341 0.0232979 0)
(0.0038703 0.0233556 0)
(0.0035364 0.0234085 0)
(0.00320178 0.0234566 0)
(0.0028665 0.0234999 0)
(0.00253065 0.0235385 0)
(0.00219427 0.0235722 0)
(0.00185745 0.0236011 0)
(0.00152025 0.0236252 0)
(0.00118274 0.0236445 0)
(0.000844984 0.023659 0)
(0.000507059 0.0236687 0)
(0.000169031 0.0236735 0)
(0.0234811 0.000167657 0)
(0.0234763 0.000502938 0)
(0.0234667 0.000838116 0)
(0.0234524 0.00117312 0)
(0.0234332 0.00150789 0)
(0.0234093 0.00184235 0)
(0.0233806 0.00217644 0)
(0.0233471 0.00251008 0)
(0.0233089 0.00284321 0)
(0.0232659 0.00317576 0)
(0.0232182 0.00350766 0)
(0.0231658 0.00383885 0)
(0.0231086 0.00416925 0)
(0.0230467 0.0044988 0)
(0.0229801 0.00482744 0)
(0.0229088 0.00515509 0)
(0.0228329 0.00548169 0)
(0.0227523 0.00580717 0)
(0.022667 0.00613147 0)
(0.0225772 0.00645452 0)
(0.0224827 0.00677625 0)
(0.0223837 0.0070966 0)
(0.02228 0.00741551 0)
(0.0221719 0.0077329 0)
(0.0220592 0.00804871 0)
(0.021942 0.00836289 0)
(0.0218204 0.00867535 0)
(0.0216943 0.00898605 0)
(0.0215637 0.00929492 0)
(0.0214288 0.00960189 0)
(0.0212895 0.0099069 0)
(0.0211459 0.0102099 0)
(0.0209979 0.0105108 0)
(0.0208457 0.0108096 0)
(0.0206892 0.0111061 0)
(0.0205285 0.0114004 0)
(0.0203636 0.0116924 0)
(0.0201946 0.011982 0)
(0.0200214 0.0122691 0)
(0.0198442 0.0125538 0)
(0.0196629 0.0128359 0)
(0.0194776 0.0131153 0)
(0.0192883 0.0133921 0)
(0.0190951 0.0136662 0)
(0.0188981 0.0139375 0)
(0.0186971 0.0142059 0)
(0.0184923 0.0144714 0)
(0.0182838 0.014734 0)
(0.0180716 0.0149936 0)
(0.0178556 0.0152501 0)
(0.017636 0.0155036 0)
(0.0174129 0.0157538 0)
(0.0171861 0.0160008 0)
(0.0169559 0.0162446 0)
(0.0167222 0.0164851 0)
(0.0164851 0.0167222 0)
(0.0162446 0.0169559 0)
(0.0160008 0.0171861 0)
(0.0157538 0.0174129 0)
(0.0155036 0.017636 0)
(0.0152501 0.0178556 0)
(0.0149936 0.0180716 0)
(0.014734 0.0182838 0)
(0.0144714 0.0184923 0)
(0.0142059 0.0186971 0)
(0.0139375 0.0188981 0)
(0.0136662 0.0190951 0)
(0.0133921 0.0192883 0)
(0.0131153 0.0194776 0)
(0.0128359 0.0196629 0)
(0.0125538 0.0198442 0)
(0.0122691 0.0200214 0)
(0.011982 0.0201946 0)
(0.0116924 0.0203636 0)
(0.0114004 0.0205285 0)
(0.0111061 0.0206892 0)
(0.0108096 0.0208457 0)
(0.0105108 0.0209979 0)
(0.0102099 0.0211459 0)
(0.0099069 0.0212895 0)
(0.00960189 0.0214288 0)
(0.00929492 0.0215637 0)
(0.00898605 0.0216943 0)
(0.00867535 0.0218204 0)
(0.00836289 0.021942 0)
(0.00804871 0.0220592 0)
(0.0077329 0.0221719 0)
(0.00741551 0.02228 0)
(0.0070966 0.0223837 0)
(0.00677625 0.0224827 0)
(0.00645452 0.0225772 0)
(0.00613147 0.022667 0)
(0.00580717 0.0227523 0)
(0.00548169 0.0228329 0)
(0.00515509 0.0229088 0)
(0.00482744 0.0229801 0)
(0.0044988 0.0230467 0)
(0.00416925 0.0231086 0)
(0.00383885 0.0231658 0)
(0.00350766 0.0232182 0)
(0.00317576 0.0232659 0)
(0.00284321 0.0233089 0)
(0.00251008 0.0233471 0)
(0.00217644 0.0233806 0)
(0.00184235 0.0234093 0)
(0.00150789 0.0234332 0)
(0.00117312 0.0234524 0)
(0.000838116 0.0234667 0)
(0.000502938 0.0234763 0)
(0.000167657 0.0234811 0)
(0.0232947 0.000166326 0)
(0.0232899 0.000498945 0)
(0.0232804 0.000831462 0)
(0.0232662 0.00116381 0)
(0.0232472 0.00149592 0)
(0.0232234 0.00182772 0)
(0.023195 0.00215916 0)
(0.0231618 0.00249015 0)
(0.0231239 0.00282063 0)
(0.0230812 0.00315054 0)
(0.0230339 0.00347981 0)
(0.0229818 0.00380837 0)
(0.0229251 0.00413615 0)
(0.0228637 0.00446308 0)
(0.0227977 0.00478911 0)
(0.022727 0.00511416 0)
(0.0226516 0.00543817 0)
(0.0225716 0.00576107 0)
(0.0224871 0.00608279 0)
(0.0223979 0.00640328 0)
(0.0223042 0.00672245 0)
(0.0222059 0.00704026 0)
(0.0221031 0.00735663 0)
(0.0219958 0.0076715 0)
(0.0218841 0.00798481 0)
(0.0217678 0.00829649 0)
(0.0216471 0.00860648 0)
(0.021522 0.00891471 0)
(0.0213925 0.00922112 0)
(0.0212587 0.00952566 0)
(0.0211205 0.00982825 0)
(0.020978 0.0101288 0)
(0.0208312 0.0104274 0)
(0.0206802 0.0107238 0)
(0.0205249 0.011018 0)
(0.0203655 0.0113099 0)
(0.0202019 0.0115996 0)
(0.0200343 0.0118869 0)
(0.0198625 0.0121717 0)
(0.0196866 0.0124541 0)
(0.0195068 0.012734 0)
(0.019323 0.0130112 0)
(0.0191352 0.0132858 0)
(0.0189435 0.0135577 0)
(0.018748 0.0138268 0)
(0.0185487 0.0140931 0)
(0.0183455 0.0143566 0)
(0.0181387 0.0146171 0)
(0.0179281 0.0148746 0)
(0.0177139 0.0151291 0)
(0.017496 0.0153805 0)
(0.0172746 0.0156287 0)
(0.0170497 0.0158738 0)
(0.0168213 0.0161156 0)
(0.0165894 0.0163542 0)
(0.0163542 0.0165894 0)
(0.0161156 0.0168213 0)
(0.0158738 0.0170497 0)
(0.0156287 0.0172746 0)
(0.0153805 0.017496 0)
(0.0151291 0.0177139 0)
(0.0148746 0.0179281 0)
(0.0146171 0.0181387 0)
(0.0143566 0.0183455 0)
(0.0140931 0.0185487 0)
(0.0138268 0.018748 0)
(0.0135577 0.0189435 0)
(0.0132858 0.0191352 0)
(0.0130112 0.019323 0)
(0.012734 0.0195068 0)
(0.0124541 0.0196866 0)
(0.0121717 0.0198625 0)
(0.0118869 0.0200343 0)
(0.0115996 0.0202019 0)
(0.0113099 0.0203655 0)
(0.011018 0.0205249 0)
(0.0107238 0.0206802 0)
(0.0104274 0.0208312 0)
(0.0101288 0.020978 0)
(0.00982825 0.0211205 0)
(0.00952566 0.0212587 0)
(0.00922112 0.0213925 0)
(0.00891471 0.021522 0)
(0.00860648 0.0216471 0)
(0.00829649 0.0217678 0)
(0.00798481 0.0218841 0)
(0.0076715 0.0219958 0)
(0.00735663 0.0221031 0)
(0.00704026 0.0222059 0)
(0.00672245 0.0223042 0)
(0.00640328 0.0223979 0)
(0.00608279 0.0224871 0)
(0.00576107 0.0225716 0)
(0.00543817 0.0226516 0)
(0.00511416 0.022727 0)
(0.00478911 0.0227977 0)
(0.00446308 0.0228637 0)
(0.00413615 0.0229251 0)
(0.00380837 0.0229818 0)
(0.00347981 0.0230339 0)
(0.00315054 0.0230812 0)
(0.00282063 0.0231239 0)
(0.00249015 0.0231618 0)
(0.00215916 0.023195 0)
(0.00182772 0.0232234 0)
(0.00149592 0.0232472 0)
(0.00116381 0.0232662 0)
(0.000831462 0.0232804 0)
(0.000498945 0.0232899 0)
(0.000166326 0.0232947 0)
(0.0231139 0.000165035 0)
(0.0231092 0.000495073 0)
(0.0230997 0.000825009 0)
(0.0230856 0.00115478 0)
(0.0230668 0.00148431 0)
(0.0230432 0.00181354 0)
(0.023015 0.0021424 0)
(0.022982 0.00247082 0)
(0.0229444 0.00279874 0)
(0.0229021 0.00312609 0)
(0.0228551 0.0034528 0)
(0.0228035 0.00377881 0)
(0.0227472 0.00410405 0)
(0.0226863 0.00442845 0)
(0.0226207 0.00475194 0)
(0.0225506 0.00507447 0)
(0.0224758 0.00539596 0)
(0.0223965 0.00571636 0)
(0.0223126 0.00603558 0)
(0.0222241 0.00635358 0)
(0.0221311 0.00667028 0)
(0.0220336 0.00698562 0)
(0.0219316 0.00729954 0)
(0.0218251 0.00761197 0)
(0.0217142 0.00792284 0)
(0.0215989 0.0082321 0)
(0.0214791 0.00853968 0)
(0.021355 0.00884552 0)
(0.0212265 0.00914956 0)
(0.0210937 0.00945173 0)
(0.0209566 0.00975197 0)
(0.0208152 0.0100502 0)
(0.0206695 0.0103464 0)
(0.0205197 0.0106405 0)
(0.0203657 0.0109325 0)
(0.0202075 0.0112221 0)
(0.0200452 0.0115096 0)
(0.0198788 0.0117946 0)
(0.0197083 0.0120773 0)
(0.0195339 0.0123575 0)
(0.0193554 0.0126351 0)
(0.019173 0.0129102 0)
(0.0189867 0.0131827 0)
(0.0187965 0.0134525 0)
(0.0186025 0.0137195 0)
(0.0184047 0.0139837 0)
(0.0182032 0.0142451 0)
(0.0179979 0.0145036 0)
(0.0177889 0.0147591 0)
(0.0175764 0.0150116 0)
(0.0173602 0.0152611 0)
(0.0171405 0.0155074 0)
(0.0169173 0.0157506 0)
(0.0166907 0.0159906 0)
(0.0164607 0.0162273 0)
(0.0162273 0.0164607 0)
(0.0159906 0.0166907 0)
(0.0157506 0.0169173 0)
(0.0155074 0.0171405 0)
(0.0152611 0.0173602 0)
(0.0150116 0.0175764 0)
(0.0147591 0.0177889 0)
(0.0145036 0.0179979 0)
(0.0142451 0.0182032 0)
(0.0139837 0.0184047 0)
(0.0137195 0.0186025 0)
(0.0134525 0.0187965 0)
(0.0131827 0.0189867 0)
(0.0129102 0.019173 0)
(0.0126351 0.0193554 0)
(0.0123575 0.0195339 0)
(0.0120773 0.0197083 0)
(0.0117946 0.0198788 0)
(0.0115096 0.0200452 0)
(0.0112221 0.0202075 0)
(0.0109325 0.0203657 0)
(0.0106405 0.0205197 0)
(0.0103464 0.0206695 0)
(0.0100502 0.0208152 0)
(0.00975197 0.0209566 0)
(0.00945173 0.0210937 0)
(0.00914956 0.0212265 0)
(0.00884552 0.021355 0)
(0.00853968 0.0214791 0)
(0.0082321 0.0215989 0)
(0.00792284 0.0217142 0)
(0.00761197 0.0218251 0)
(0.00729954 0.0219316 0)
(0.00698562 0.0220336 0)
(0.00667028 0.0221311 0)
(0.00635358 0.0222241 0)
(0.00603558 0.0223126 0)
(0.00571636 0.0223965 0)
(0.00539596 0.0224758 0)
(0.00507447 0.0225506 0)
(0.00475194 0.0226207 0)
(0.00442845 0.0226863 0)
(0.00410405 0.0227472 0)
(0.00377881 0.0228035 0)
(0.0034528 0.0228551 0)
(0.00312609 0.0229021 0)
(0.00279874 0.0229444 0)
(0.00247082 0.022982 0)
(0.0021424 0.023015 0)
(0.00181354 0.0230432 0)
(0.00148431 0.0230668 0)
(0.00115478 0.0230856 0)
(0.000825009 0.0230997 0)
(0.000495073 0.0231092 0)
(0.000165035 0.0231139 0)
(0.0229386 0.000163784 0)
(0.0229339 0.000491319 0)
(0.0229246 0.000818753 0)
(0.0229105 0.00114602 0)
(0.0228918 0.00147305 0)
(0.0228685 0.00179979 0)
(0.0228404 0.00212615 0)
(0.0228077 0.00245209 0)
(0.0227704 0.00277752 0)
(0.0227284 0.00310239 0)
(0.0226818 0.00342662 0)
(0.0226306 0.00375015 0)
(0.0225747 0.00407292 0)
(0.0225142 0.00439486 0)
(0.0224492 0.00471591 0)
(0.0223796 0.00503599 0)
(0.0223054 0.00535505 0)
(0.0222266 0.00567301 0)
(0.0221434 0.00598981 0)
(0.0220556 0.0063054 0)
(0.0219633 0.0066197 0)
(0.0218665 0.00693265 0)
(0.0217653 0.00724418 0)
(0.0216596 0.00755424 0)
(0.0215495 0.00786276 0)
(0.0214351 0.00816968 0)
(0.0213162 0.00847492 0)
(0.021193 0.00877844 0)
(0.0210655 0.00908018 0)
(0.0209337 0.00938005 0)
(0.0207976 0.00967802 0)
(0.0206573 0.00997401 0)
(0.0205128 0.010268 0)
(0.0203641 0.0105598 0)
(0.0202112 0.0108495 0)
(0.0200542 0.011137 0)
(0.0198932 0.0114223 0)
(0.019728 0.0117052 0)
(0.0195589 0.0119857 0)
(0.0193857 0.0122638 0)
(0.0192086 0.0125393 0)
(0.0190276 0.0128123 0)
(0.0188427 0.0130827 0)
(0.018654 0.0133505 0)
(0.0184614 0.0136155 0)
(0.0182651 0.0138777 0)
(0.0180651 0.0141371 0)
(0.0178614 0.0143936 0)
(0.017654 0.0146472 0)
(0.0174431 0.0148978 0)
(0.0172286 0.0151454 0)
(0.0170106 0.0153898 0)
(0.0167891 0.0156312 0)
(0.0165641 0.0158693 0)
(0.0163358 0.0161042 0)
(0.0161042 0.0163358 0)
(0.0158693 0.0165641 0)
(0.0156312 0.0167891 0)
(0.0153898 0.0170106 0)
(0.0151454 0.0172286 0)
(0.0148978 0.0174431 0)
(0.0146472 0.017654 0)
(0.0143936 0.0178614 0)
(0.0141371 0.0180651 0)
(0.0138777 0.0182651 0)
(0.0136155 0.0184614 0)
(0.0133505 0.018654 0)
(0.0130827 0.0188427 0)
(0.0128123 0.0190276 0)
(0.0125393 0.0192086 0)
(0.0122638 0.0193857 0)
(0.0119857 0.0195589 0)
(0.0117052 0.019728 0)
(0.0114223 0.0198932 0)
(0.011137 0.0200542 0)
(0.0108495 0.0202112 0)
(0.0105598 0.0203641 0)
(0.010268 0.0205128 0)
(0.00997401 0.0206573 0)
(0.00967802 0.0207976 0)
(0.00938005 0.0209337 0)
(0.00908018 0.0210655 0)
(0.00877844 0.021193 0)
(0.00847492 0.0213162 0)
(0.00816968 0.0214351 0)
(0.00786276 0.0215495 0)
(0.00755424 0.0216596 0)
(0.00724418 0.0217653 0)
(0.00693265 0.0218665 0)
(0.0066197 0.0219633 0)
(0.0063054 0.0220556 0)
(0.00598981 0.0221434 0)