/*--------------------------------*- C++ -*----------------------------------*\
| =========                 |                                                 |
| \\      /  F ield         | OpenFOAM: The Open Source CFD Toolbox           |
|  \\    /   O peration     | Version:  2312                                  |
|   \\  /    A nd           | Website:  www.openfoam.com                      |
|    \\/     M anipulation  |                                                 |
\*---------------------------------------------------------------------------*/
FoamFile
{
    version     2.0;
    format      ascii;
    arch        "LSB;label=32;scalar=64";
    class       volVectorField;
    location    "80";
    object      D;
}
// * * * * * * * * * * * * * * * * * * * * * * * * * * * * * * * * * * * * * //

dimensions      [0 1 0 0 0 0 0];

internalField   nonuniform List<vector> 
12870
(
(3.49782 0.0249748 0)
(3.49711 0.0749193 0)
(3.49568 0.124848 0)
(3.49354 0.174752 0)
(3.49069 0.22462 0)
(3.48712 0.274443 0)
(3.48285 0.324209 0)
(3.47787 0.373909 0)
(3.47217 0.423533 0)
(3.46577 0.473071 0)
(3.45866 0.522512 0)
(3.45085 0.571847 0)
(3.44233 0.621065 0)
(3.43311 0.670156 0)
(3.42319 0.719111 0)
(3.41257 0.767919 0)
(3.40126 0.81657 0)
(3.38925 0.865055 0)
(3.37656 0.913364 0)
(3.36317 0.961486 0)
(3.3491 1.00941 0)
(3.33434 1.05713 0)
(3.31891 1.10464 0)
(3.30279 1.15192 0)
(3.28601 1.19896 0)
(3.26855 1.24576 0)
(3.25043 1.29231 0)
(3.23165 1.33859 0)
(3.2122 1.3846 0)
(3.1921 1.43033 0)
(3.17135 1.47576 0)
(3.14996 1.5209 0)
(3.12792 1.56572 0)
(3.10524 1.61023 0)
(3.08193 1.65441 0)
(3.05799 1.69825 0)
(3.03343 1.74174 0)
(3.00825 1.78488 0)
(2.98246 1.82765 0)
(2.95605 1.87005 0)
(2.92905 1.91207 0)
(2.90145 1.9537 0)
(2.87325 1.99494 0)
(2.84447 2.03576 0)
(2.81511 2.07617 0)
(2.78518 2.11616 0)
(2.75468 2.15571 0)
(2.72362 2.19483 0)
(2.692 2.2335 0)
(2.65983 2.27171 0)
(2.62712 2.30946 0)
(2.59387 2.34674 0)
(2.5601 2.38354 0)
(2.5258 2.41985 0)
(2.49099 2.45567 0)
(2.45567 2.49099 0)
(2.41985 2.5258 0)
(2.38354 2.5601 0)
(2.34674 2.59387 0)
(2.30946 2.62712 0)
(2.27171 2.65983 0)
(2.2335 2.692 0)
(2.19483 2.72362 0)
(2.15571 2.75468 0)
(2.11616 2.78518 0)
(2.07617 2.81511 0)
(2.03576 2.84447 0)
(1.99494 2.87325 0)
(1.9537 2.90145 0)
(1.91207 2.92905 0)
(1.87005 2.95605 0)
(1.82765 2.98246 0)
(1.78488 3.00825 0)
(1.74174 3.03343 0)
(1.69825 3.05799 0)
(1.65441 3.08193 0)
(1.61023 3.10524 0)
(1.56572 3.12792 0)
(1.5209 3.14996 0)
(1.47576 3.17135 0)
(1.43033 3.1921 0)
(1.3846 3.2122 0)
(1.33859 3.23165 0)
(1.29231 3.25043 0)
(1.24576 3.26855 0)
(1.19896 3.28601 0)
(1.15192 3.30279 0)
(1.10464 3.31891 0)
(1.05713 3.33434 0)
(1.00941 3.3491 0)
(0.961486 3.36317 0)
(0.913364 3.37656 0)
(0.865055 3.38925 0)
(0.81657 3.40126 0)
(0.767919 3.41257 0)
(0.719111 3.42319 0)
(0.670156 3.43311 0)
(0.621065 3.44233 0)
(0.571847 3.45085 0)
(0.522512 3.45866 0)
(0.473071 3.46577 0)
(0.423533 3.47217 0)
(0.373909 3.47787 0)
(0.324209 3.48285 0)
(0.274443 3.48712 0)
(0.22462 3.49069 0)
(0.174752 3.49354 0)
(0.124848 3.49568 0)
(0.0749193 3.49711 0)
(0.0249748 3.49782 0)
(3.47829 0.0248354 0)
(3.47758 0.074501 0)
(3.47616 0.124152 0)
(3.47404 0.173777 0)
(3.4712 0.223366 0)
(3.46766 0.272911 0)
(3.46341 0.322399 0)
(3.45845 0.371822 0)
(3.45279 0.421169 0)
(3.44642 0.47043 0)
(3.43935 0.519595 0)
(3.43158 0.568654 0)
(3.42311 0.617598 0)
(3.41395 0.666415 0)
(3.40408 0.715096 0)
(3.39352 0.763632 0)
(3.38227 0.812012 0)
(3.37033 0.860226 0)
(3.35771 0.908265 0)
(3.34439 0.956119 0)
(3.3304 1.00378 0)
(3.31573 1.05123 0)
(3.30038 1.09847 0)
(3.28436 1.14549 0)
(3.26766 1.19227 0)
(3.25031 1.23881 0)
(3.23228 1.28509 0)
(3.2136 1.33112 0)
(3.19427 1.37687 0)
(3.17428 1.42234 0)
(3.15365 1.46753 0)
(3.13237 1.51241 0)
(3.11046 1.55698 0)
(3.08791 1.60124 0)
(3.06473 1.64517 0)
(3.04092 1.68877 0)
(3.0165 1.73202 0)
(2.99146 1.77491 0)
(2.96581 1.81745 0)
(2.93955 1.85961 0)
(2.9127 1.9014 0)
(2.88525 1.9428 0)
(2.85721 1.9838 0)
(2.8286 2.0244 0)
(2.7994 2.06458 0)
(2.76963 2.10434 0)
(2.7393 2.14368 0)
(2.70841 2.18258 0)
(2.67697 2.22103 0)
(2.64498 2.25903 0)
(2.61245 2.29657 0)
(2.57939 2.33364 0)
(2.54581 2.37023 0)
(2.5117 2.40634 0)
(2.47709 2.44196 0)
(2.44196 2.47709 0)
(2.40634 2.5117 0)
(2.37023 2.54581 0)
(2.33364 2.57939 0)
(2.29657 2.61245 0)
(2.25903 2.64498 0)
(2.22103 2.67697 0)
(2.18258 2.70841 0)
(2.14368 2.7393 0)
(2.10434 2.76963 0)
(2.06458 2.7994 0)
(2.0244 2.8286 0)
(1.9838 2.85721 0)
(1.9428 2.88525 0)
(1.9014 2.9127 0)
(1.85961 2.93955 0)
(1.81745 2.96581 0)
(1.77491 2.99146 0)
(1.73202 3.0165 0)
(1.68877 3.04092 0)
(1.64517 3.06473 0)
(1.60124 3.08791 0)
(1.55698 3.11046 0)
(1.51241 3.13237 0)
(1.46753 3.15365 0)
(1.42234 3.17428 0)
(1.37687 3.19427 0)
(1.33112 3.2136 0)
(1.28509 3.23228 0)
(1.23881 3.25031 0)
(1.19227 3.26766 0)
(1.14549 3.28436 0)
(1.09847 3.30038 0)
(1.05123 3.31573 0)
(1.00378 3.3304 0)
(0.956119 3.34439 0)
(0.908265 3.35771 0)
(0.860226 3.37033 0)
(0.812012 3.38227 0)
(0.763632 3.39352 0)
(0.715096 3.40408 0)
(0.666415 3.41395 0)
(0.617598 3.42311 0)
(0.568654 3.43158 0)
(0.519595 3.43935 0)
(0.47043 3.44642 0)
(0.421169 3.45279 0)
(0.371822 3.45845 0)
(0.322399 3.46341 0)
(0.272911 3.46766 0)
(0.223366 3.4712 0)
(0.173777 3.47404 0)
(0.124152 3.47616 0)
(0.074501 3.47758 0)
(0.0248354 3.47829 0)
(3.45939 0.0247004 0)
(3.45868 0.0740961 0)
(3.45727 0.123477 0)
(3.45515 0.172832 0)
(3.45233 0.222152 0)
(3.44881 0.271427 0)
(3.44458 0.320647 0)
(3.43965 0.369801 0)
(3.43402 0.41888 0)
(3.42769 0.467873 0)
(3.42066 0.516771 0)
(3.41293 0.565564 0)
(3.40451 0.614241 0)
(3.39539 0.662793 0)
(3.38558 0.71121 0)
(3.37508 0.759481 0)
(3.36389 0.807598 0)
(3.35201 0.855551 0)
(3.33946 0.903328 0)
(3.32622 0.950922 0)
(3.3123 0.998322 0)
(3.29771 1.04552 0)
(3.28244 1.0925 0)
(3.2665 1.13926 0)
(3.2499 1.18579 0)
(3.23264 1.23207 0)
(3.21472 1.27811 0)
(3.19614 1.32388 0)
(3.17691 1.36939 0)
(3.15703 1.41461 0)
(3.13651 1.45955 0)
(3.11535 1.50419 0)
(3.09355 1.54852 0)
(3.07112 1.59254 0)
(3.04807 1.63623 0)
(3.02439 1.67959 0)
(3.0001 1.7226 0)
(2.9752 1.76527 0)
(2.94969 1.80757 0)
(2.92358 1.84951 0)
(2.89687 1.89106 0)
(2.86957 1.93224 0)
(2.84168 1.97302 0)
(2.81322 2.01339 0)
(2.78418 2.05336 0)
(2.75458 2.09291 0)
(2.72441 2.13203 0)
(2.69369 2.17071 0)
(2.66242 2.20896 0)
(2.63061 2.24675 0)
(2.59825 2.28408 0)
(2.56537 2.32095 0)
(2.53197 2.35735 0)
(2.49805 2.39326 0)
(2.46362 2.42869 0)
(2.42869 2.46362 0)
(2.39326 2.49805 0)
(2.35735 2.53197 0)
(2.32095 2.56537 0)
(2.28408 2.59825 0)
(2.24675 2.63061 0)
(2.20896 2.66242 0)
(2.17071 2.69369 0)
(2.13203 2.72441 0)
(2.09291 2.75458 0)
(2.05336 2.78418 0)
(2.01339 2.81322 0)
(1.97302 2.84168 0)
(1.93224 2.86957 0)
(1.89106 2.89687 0)
(1.84951 2.92358 0)
(1.80757 2.94969 0)
(1.76527 2.9752 0)
(1.7226 3.0001 0)
(1.67959 3.02439 0)
(1.63623 3.04807 0)
(1.59254 3.07112 0)
(1.54852 3.09355 0)
(1.50419 3.11535 0)
(1.45955 3.13651 0)
(1.41461 3.15703 0)
(1.36939 3.17691 0)
(1.32388 3.19614 0)
(1.27811 3.21472 0)
(1.23207 3.23264 0)
(1.18579 3.2499 0)
(1.13926 3.2665 0)
(1.0925 3.28244 0)
(1.04552 3.29771 0)
(0.998322 3.3123 0)
(0.950922 3.32622 0)
(0.903328 3.33946 0)
(0.855551 3.35201 0)
(0.807598 3.36389 0)
(0.759481 3.37508 0)
(0.71121 3.38558 0)
(0.662793 3.39539 0)
(0.614241 3.40451 0)
(0.565564 3.41293 0)
(0.516771 3.42066 0)
(0.467873 3.42769 0)
(0.41888 3.43402 0)
(0.369801 3.43965 0)
(0.320647 3.44458 0)
(0.271427 3.44881 0)
(0.222152 3.45233 0)
(0.172832 3.45515 0)
(0.123477 3.45727 0)
(0.0740961 3.45868 0)
(0.0247004 3.45939 0)
(3.44073 0.0245672 0)
(3.44003 0.0736965 0)
(3.43862 0.122811 0)
(3.43652 0.1719 0)
(3.43372 0.220954 0)
(3.43021 0.269963 0)
(3.42601 0.318918 0)
(3.4211 0.367807 0)
(3.4155 0.416621 0)
(3.4092 0.46535 0)
(3.40221 0.513984 0)
(3.39453 0.562513 0)
(3.38615 0.610928 0)
(3.37708 0.659218 0)
(3.36732 0.707374 0)
(3.35688 0.755385 0)
(3.34575 0.803243 0)
(3.33394 0.850936 0)
(3.32145 0.898457 0)
(3.30828 0.945793 0)
(3.29443 0.992938 0)
(3.27992 1.03988 0)
(3.26474 1.08661 0)
(3.24889 1.13312 0)
(3.23238 1.17939 0)
(3.21521 1.22543 0)
(3.19738 1.27122 0)
(3.1789 1.31674 0)
(3.15977 1.362 0)
(3.14 1.40698 0)
(3.11959 1.45168 0)
(3.09854 1.49608 0)
(3.07687 1.54017 0)
(3.05456 1.58395 0)
(3.03163 1.6274 0)
(3.00808 1.67053 0)
(2.98392 1.71331 0)
(2.95915 1.75575 0)
(2.93378 1.79782 0)
(2.90781 1.83953 0)
(2.88124 1.88087 0)
(2.85409 1.92182 0)
(2.82636 1.96238 0)
(2.79805 2.00253 0)
(2.76917 2.04229 0)
(2.73972 2.08162 0)
(2.70972 2.12053 0)
(2.67916 2.15901 0)
(2.64806 2.19704 0)
(2.61642 2.23463 0)
(2.58424 2.27177 0)
(2.55154 2.30844 0)
(2.51832 2.34463 0)
(2.48458 2.38036 0)
(2.45033 2.41559 0)
(2.41559 2.45033 0)
(2.38036 2.48458 0)
(2.34463 2.51832 0)
(2.30844 2.55154 0)
(2.27177 2.58424 0)
(2.23463 2.61642 0)
(2.19704 2.64806 0)
(2.15901 2.67916 0)
(2.12053 2.70972 0)
(2.08162 2.73972 0)
(2.04229 2.76917 0)
(2.00253 2.79805 0)
(1.96238 2.82636 0)
(1.92182 2.85409 0)
(1.88087 2.88124 0)
(1.83953 2.90781 0)
(1.79782 2.93378 0)
(1.75575 2.95915 0)
(1.71331 2.98392 0)
(1.67053 3.00808 0)
(1.6274 3.03163 0)
(1.58395 3.05456 0)
(1.54017 3.07687 0)
(1.49608 3.09854 0)
(1.45168 3.11959 0)
(1.40698 3.14 0)
(1.362 3.15977 0)
(1.31674 3.1789 0)
(1.27122 3.19738 0)
(1.22543 3.21521 0)
(1.17939 3.23238 0)
(1.13312 3.24889 0)
(1.08661 3.26474 0)
(1.03988 3.27992 0)
(0.992938 3.29443 0)
(0.945793 3.30828 0)
(0.898457 3.32145 0)
(0.850936 3.33394 0)
(0.803243 3.34575 0)
(0.755385 3.35688 0)
(0.707374 3.36732 0)
(0.659218 3.37708 0)
(0.610928 3.38615 0)
(0.562513 3.39453 0)
(0.513984 3.40221 0)
(0.46535 3.4092 0)
(0.416621 3.4155 0)
(0.367807 3.4211 0)
(0.318918 3.42601 0)
(0.269963 3.43021 0)
(0.220954 3.43372 0)
(0.1719 3.43652 0)
(0.122811 3.43862 0)
(0.0736965 3.44003 0)
(0.0245672 3.44073 0)
(3.42253 0.0244372 0)
(3.42183 0.0733066 0)
(3.42043 0.122161 0)
(3.41834 0.170991 0)
(3.41555 0.219785 0)
(3.41206 0.268535 0)
(3.40788 0.31723 0)
(3.403 0.365861 0)
(3.39743 0.414416 0)
(3.39117 0.462888 0)
(3.38421 0.511265 0)
(3.37657 0.559537 0)
(3.36823 0.607696 0)
(3.35921 0.655731 0)
(3.3495 0.703631 0)
(3.33912 0.751389 0)
(3.32805 0.798993 0)
(3.3163 0.846434 0)
(3.30387 0.893703 0)
(3.29077 0.94079 0)
(3.277 0.987684 0)
(3.26257 1.03438 0)
(3.24746 1.08086 0)
(3.2317 1.12712 0)
(3.21527 1.17315 0)
(3.19819 1.21895 0)
(3.18046 1.26449 0)
(3.16208 1.30978 0)
(3.14306 1.3548 0)
(3.12339 1.39954 0)
(3.10309 1.444 0)
(3.08215 1.48816 0)
(3.06059 1.53202 0)
(3.0384 1.57557 0)
(3.01559 1.61879 0)
(2.99217 1.66169 0)
(2.96813 1.70425 0)
(2.9435 1.74646 0)
(2.91826 1.78831 0)
(2.89242 1.8298 0)
(2.866 1.87092 0)
(2.83899 1.91165 0)
(2.81141 1.95199 0)
(2.78325 1.99194 0)
(2.75452 2.03148 0)
(2.72523 2.07061 0)
(2.69538 2.10931 0)
(2.66499 2.14758 0)
(2.63405 2.18542 0)
(2.60258 2.22281 0)
(2.57057 2.25975 0)
(2.53804 2.29622 0)
(2.50499 2.33223 0)
(2.47143 2.36776 0)
(2.43737 2.40281 0)
(2.40281 2.43737 0)
(2.36776 2.47143 0)
(2.33223 2.50499 0)
(2.29622 2.53804 0)
(2.25975 2.57057 0)
(2.22281 2.60258 0)
(2.18542 2.63405 0)
(2.14758 2.66499 0)
(2.10931 2.69538 0)
(2.07061 2.72523 0)
(2.03148 2.75452 0)
(1.99194 2.78325 0)
(1.95199 2.81141 0)
(1.91165 2.83899 0)
(1.87092 2.866 0)
(1.8298 2.89242 0)
(1.78831 2.91826 0)
(1.74646 2.9435 0)
(1.70425 2.96813 0)
(1.66169 2.99217 0)
(1.61879 3.01559 0)
(1.57557 3.0384 0)
(1.53202 3.06059 0)
(1.48816 3.08215 0)
(1.444 3.10309 0)
(1.39954 3.12339 0)
(1.3548 3.14306 0)
(1.30978 3.16208 0)
(1.26449 3.18046 0)
(1.21895 3.19819 0)
(1.17315 3.21527 0)
(1.12712 3.2317 0)
(1.08086 3.24746 0)
(1.03438 3.26257 0)
(0.987684 3.277 0)
(0.94079 3.29077 0)
(0.893703 3.30387 0)
(0.846434 3.3163 0)
(0.798993 3.32805 0)
(0.751389 3.33912 0)
(0.703631 3.3495 0)
(0.655731 3.35921 0)
(0.607696 3.36823 0)
(0.559537 3.37657 0)
(0.511265 3.38421 0)
(0.462888 3.39117 0)
(0.414416 3.39743 0)
(0.365861 3.403 0)
(0.31723 3.40788 0)
(0.268535 3.41206 0)
(0.219785 3.41555 0)
(0.170991 3.41834 0)
(0.122161 3.42043 0)
(0.0733066 3.42183 0)
(0.0244372 3.42253 0)
(3.40465 0.0243095 0)
(3.40395 0.0729237 0)
(3.40257 0.121523 0)
(3.40048 0.170097 0)
(3.39771 0.218637 0)
(3.39424 0.267132 0)
(3.39008 0.315573 0)
(3.38523 0.36395 0)
(3.37968 0.412252 0)
(3.37345 0.46047 0)
(3.36653 0.508594 0)
(3.35893 0.556615 0)
(3.35064 0.604522 0)
(3.34166 0.652305 0)
(3.33201 0.699956 0)
(3.32167 0.747464 0)
(3.31066 0.79482 0)
(3.29897 0.842013 0)
(3.28661 0.889035 0)
(3.27358 0.935875 0)
(3.25989 0.982525 0)
(3.24552 1.02897 0)
(3.2305 1.07521 0)
(3.21482 1.12123 0)
(3.19848 1.16703 0)
(3.18149 1.21258 0)
(3.16385 1.25789 0)
(3.14556 1.30294 0)
(3.12664 1.34772 0)
(3.10708 1.39223 0)
(3.08688 1.43645 0)
(3.06605 1.48039 0)
(3.0446 1.52402 0)
(3.02253 1.56734 0)
(2.99984 1.61034 0)
(2.97654 1.65301 0)
(2.95263 1.69535 0)
(2.92812 1.73733 0)
(2.90301 1.77897 0)
(2.87732 1.82024 0)
(2.85103 1.86114 0)
(2.82416 1.90166 0)
(2.79672 1.9418 0)
(2.76871 1.98154 0)
(2.74013 2.02087 0)
(2.71099 2.05979 0)
(2.6813 2.09829 0)
(2.65107 2.13637 0)
(2.62029 2.174 0)
(2.58898 2.2112 0)
(2.55714 2.24794 0)
(2.52478 2.28423 0)
(2.49191 2.32005 0)
(2.45852 2.35539 0)
(2.42464 2.39026 0)
(2.39026 2.42464 0)
(2.35539 2.45852 0)
(2.32005 2.49191 0)
(2.28423 2.52478 0)
(2.24794 2.55714 0)
(2.2112 2.58898 0)
(2.174 2.62029 0)
(2.13637 2.65107 0)
(2.09829 2.6813 0)
(2.05979 2.71099 0)
(2.02087 2.74013 0)
(1.98154 2.76871 0)
(1.9418 2.79672 0)
(1.90166 2.82416 0)
(1.86114 2.85103 0)
(1.82024 2.87732 0)
(1.77897 2.90301 0)
(1.73733 2.92812 0)
(1.69535 2.95263 0)
(1.65301 2.97654 0)
(1.61034 2.99984 0)
(1.56734 3.02253 0)
(1.52402 3.0446 0)
(1.48039 3.06605 0)
(1.43645 3.08688 0)
(1.39223 3.10708 0)
(1.34772 3.12664 0)
(1.30294 3.14556 0)
(1.25789 3.16385 0)
(1.21258 3.18149 0)
(1.16703 3.19848 0)
(1.12123 3.21482 0)
(1.07521 3.2305 0)
(1.02897 3.24552 0)
(0.982525 3.25989 0)
(0.935875 3.27358 0)
(0.889035 3.28661 0)
(0.842013 3.29897 0)
(0.79482 3.31066 0)
(0.747464 3.32167 0)
(0.699956 3.33201 0)
(0.652305 3.34166 0)
(0.604522 3.35064 0)
(0.556615 3.35893 0)
(0.508594 3.36653 0)
(0.46047 3.37345 0)
(0.412252 3.37968 0)
(0.36395 3.38523 0)
(0.315573 3.39008 0)
(0.267132 3.39424 0)
(0.218637 3.39771 0)
(0.170097 3.40048 0)
(0.121523 3.40257 0)
(0.0729237 3.40395 0)
(0.0243095 3.40465 0)
(3.38716 0.0241847 0)
(3.38647 0.0725491 0)
(3.38509 0.120899 0)
(3.38302 0.169224 0)
(3.38026 0.217514 0)
(3.3768 0.26576 0)
(3.37267 0.313952 0)
(3.36784 0.36208 0)
(3.36232 0.410134 0)
(3.35613 0.458105 0)
(3.34924 0.505982 0)
(3.34168 0.553755 0)
(3.33343 0.601416 0)
(3.3245 0.648955 0)
(3.31489 0.696361 0)
(3.30461 0.743625 0)
(3.29366 0.790737 0)
(3.28203 0.837688 0)
(3.26973 0.884468 0)
(3.25677 0.931068 0)
(3.24314 0.977478 0)
(3.22885 1.02369 0)
(3.21391 1.06969 0)
(3.1983 1.11547 0)
(3.18205 1.16103 0)
(3.16515 1.20635 0)
(3.1476 1.25142 0)
(3.12941 1.29624 0)
(3.11058 1.3408 0)
(3.09112 1.38508 0)
(3.07102 1.42908 0)
(3.0503 1.47278 0)
(3.02896 1.51619 0)
(3.007 1.55929 0)
(2.98443 1.60207 0)
(2.96125 1.64452 0)
(2.93746 1.68664 0)
(2.91308 1.72841 0)
(2.8881 1.76983 0)
(2.86254 1.81089 0)
(2.83639 1.85158 0)
(2.80966 1.8919 0)
(2.78235 1.93182 0)
(2.75449 1.97136 0)
(2.72605 2.01049 0)
(2.69707 2.04921 0)
(2.66753 2.08751 0)
(2.63745 2.12539 0)
(2.60683 2.16284 0)
(2.57568 2.19984 0)
(2.54401 2.2364 0)
(2.51181 2.27249 0)
(2.47911 2.30813 0)
(2.4459 2.3433 0)
(2.41218 2.37798 0)
(2.37798 2.41218 0)
(2.3433 2.4459 0)
(2.30813 2.47911 0)
(2.27249 2.51181 0)
(2.2364 2.54401 0)
(2.19984 2.57568 0)
(2.16284 2.60683 0)
(2.12539 2.63745 0)
(2.08751 2.66753 0)
(2.04921 2.69707 0)
(2.01049 2.72605 0)
(1.97136 2.75449 0)
(1.93182 2.78235 0)
(1.8919 2.80966 0)
(1.85158 2.83639 0)
(1.81089 2.86254 0)
(1.76983 2.8881 0)
(1.72841 2.91308 0)
(1.68664 2.93746 0)
(1.64452 2.96125 0)
(1.60207 2.98443 0)
(1.55929 3.007 0)
(1.51619 3.02896 0)
(1.47278 3.0503 0)
(1.42908 3.07102 0)
(1.38508 3.09112 0)
(1.3408 3.11058 0)
(1.29624 3.12941 0)
(1.25142 3.1476 0)
(1.20635 3.16515 0)
(1.16103 3.18205 0)
(1.11547 3.1983 0)
(1.06969 3.21391 0)
(1.02369 3.22885 0)
(0.977478 3.24314 0)
(0.931068 3.25677 0)
(0.884468 3.26973 0)
(0.837688 3.28203 0)
(0.790737 3.29366 0)
(0.743625 3.30461 0)
(0.696361 3.31489 0)
(0.648955 3.3245 0)
(0.601416 3.33343 0)
(0.553755 3.34168 0)
(0.505982 3.34924 0)
(0.458105 3.35613 0)
(0.410134 3.36232 0)
(0.36208 3.36784 0)
(0.313952 3.37267 0)
(0.26576 3.3768 0)
(0.217514 3.38026 0)
(0.169224 3.38302 0)
(0.120899 3.38509 0)
(0.0725491 3.38647 0)
(0.0241847 3.38716 0)
(3.37002 0.0240623 0)
(3.36933 0.0721819 0)
(3.36795 0.120287 0)
(3.36589 0.168367 0)
(3.36315 0.216413 0)
(3.35971 0.264415 0)
(3.35559 0.312363 0)
(3.35079 0.360247 0)
(3.34531 0.408058 0)
(3.33914 0.455786 0)
(3.33229 0.503421 0)
(3.32476 0.550953 0)
(3.31655 0.598372 0)
(3.30767 0.64567 0)
(3.29811 0.692836 0)
(3.28789 0.739861 0)
(3.27699 0.786735 0)
(3.26542 0.833448 0)
(3.25318 0.879991 0)
(3.24029 0.926356 0)
(3.22673 0.972531 0)
(3.21251 1.01851 0)
(3.19764 1.06428 0)
(3.18212 1.10983 0)
(3.16594 1.15515 0)
(3.14913 1.20024 0)
(3.13167 1.24509 0)
(3.11357 1.28968 0)
(3.09483 1.33401 0)
(3.07547 1.37807 0)
(3.05548 1.42184 0)
(3.03486 1.46533 0)
(3.01363 1.50852 0)
(2.99178 1.55139 0)
(2.96932 1.59396 0)
(2.94626 1.6362 0)
(2.9226 1.6781 0)
(2.89834 1.71966 0)
(2.87348 1.76087 0)
(2.84805 1.80173 0)
(2.82203 1.84221 0)
(2.79543 1.88232 0)
(2.76827 1.92205 0)
(2.74054 1.96138 0)
(2.71226 2.00031 0)
(2.68342 2.03884 0)
(2.65403 2.07695 0)
(2.6241 2.11463 0)
(2.59364 2.15189 0)
(2.56265 2.18871 0)
(2.53113 2.22508 0)
(2.4991 2.26099 0)
(2.46656 2.29645 0)
(2.43352 2.33143 0)
(2.39998 2.36595 0)
(2.36595 2.39998 0)
(2.33143 2.43352 0)
(2.29645 2.46656 0)
(2.26099 2.4991 0)
(2.22508 2.53113 0)
(2.18871 2.56265 0)
(2.15189 2.59364 0)
(2.11463 2.6241 0)
(2.07695 2.65403 0)
(2.03884 2.68342 0)
(2.00031 2.71226 0)
(1.96138 2.74054 0)
(1.92205 2.76827 0)
(1.88232 2.79543 0)
(1.84221 2.82203 0)
(1.80173 2.84805 0)
(1.76087 2.87348 0)
(1.71966 2.89834 0)
(1.6781 2.9226 0)
(1.6362 2.94626 0)
(1.59396 2.96932 0)
(1.55139 2.99178 0)
(1.50852 3.01363 0)
(1.46533 3.03486 0)
(1.42184 3.05548 0)
(1.37807 3.07547 0)
(1.33401 3.09483 0)
(1.28968 3.11357 0)
(1.24509 3.13167 0)
(1.20024 3.14913 0)
(1.15515 3.16594 0)
(1.10983 3.18212 0)
(1.06428 3.19764 0)
(1.01851 3.21251 0)
(0.972531 3.22673 0)
(0.926356 3.24029 0)
(0.879991 3.25318 0)
(0.833448 3.26542 0)
(0.786735 3.27699 0)
(0.739861 3.28789 0)
(0.692836 3.29811 0)
(0.64567 3.30767 0)
(0.598372 3.31655 0)
(0.550953 3.32476 0)
(0.503421 3.33229 0)
(0.455786 3.33914 0)
(0.408058 3.34531 0)
(0.360247 3.35079 0)
(0.312363 3.35559 0)
(0.264415 3.35971 0)
(0.216413 3.36315 0)
(0.168367 3.36589 0)
(0.120287 3.36795 0)
(0.0721819 3.36933 0)
(0.0240623 3.37002 0)
(3.35323 0.0239424 0)
(3.35255 0.0718224 0)
(3.35118 0.119688 0)
(3.34913 0.167529 0)
(3.3464 0.215335 0)
(3.34298 0.263098 0)
(3.33888 0.310807 0)
(3.3341 0.358453 0)
(3.32865 0.406026 0)
(3.32251 0.453516 0)
(3.31569 0.500913 0)
(3.3082 0.548209 0)
(3.30004 0.595392 0)
(3.2912 0.642454 0)
(3.28169 0.689385 0)
(3.27151 0.736176 0)
(3.26066 0.782816 0)
(3.24915 0.829297 0)
(3.23698 0.875609 0)
(3.22415 0.921742 0)
(3.21066 0.967687 0)
(3.19651 1.01343 0)
(3.18171 1.05898 0)
(3.16627 1.1043 0)
(3.15018 1.1494 0)
(3.13344 1.19427 0)
(3.11607 1.23889 0)
(3.09806 1.28326 0)
(3.07942 1.32737 0)
(3.06015 1.3712 0)
(3.04026 1.41476 0)
(3.01975 1.45803 0)
(2.99862 1.501 0)
(2.97688 1.54367 0)
(2.95454 1.58602 0)
(2.93159 1.62805 0)
(2.90804 1.66974 0)
(2.8839 1.7111 0)
(2.85917 1.7521 0)
(2.83386 1.79275 0)
(2.80797 1.83304 0)
(2.78151 1.87295 0)
(2.75448 1.91247 0)
(2.72689 1.95161 0)
(2.69875 1.99035 0)
(2.67005 2.02868 0)
(2.64081 2.0666 0)
(2.61103 2.1041 0)
(2.58072 2.14117 0)
(2.54988 2.17781 0)
(2.51852 2.21399 0)
(2.48665 2.24973 0)
(2.45427 2.28501 0)
(2.4214 2.31982 0)
(2.38802 2.35416 0)
(2.35416 2.38802 0)
(2.31982 2.4214 0)
(2.28501 2.45427 0)
(2.24973 2.48665 0)
(2.21399 2.51852 0)
(2.17781 2.54988 0)
(2.14117 2.58072 0)
(2.1041 2.61103 0)
(2.0666 2.64081 0)
(2.02868 2.67005 0)
(1.99035 2.69875 0)
(1.95161 2.72689 0)
(1.91247 2.75448 0)
(1.87295 2.78151 0)
(1.83304 2.80797 0)
(1.79275 2.83386 0)
(1.7521 2.85917 0)
(1.7111 2.8839 0)
(1.66974 2.90804 0)
(1.62805 2.93159 0)
(1.58602 2.95454 0)
(1.54367 2.97688 0)
(1.501 2.99862 0)
(1.45803 3.01975 0)
(1.41476 3.04026 0)
(1.3712 3.06015 0)
(1.32737 3.07942 0)
(1.28326 3.09806 0)
(1.23889 3.11607 0)
(1.19427 3.13344 0)
(1.1494 3.15018 0)
(1.1043 3.16627 0)
(1.05898 3.18171 0)
(1.01343 3.19651 0)
(0.967687 3.21066 0)
(0.921742 3.22415 0)
(0.875609 3.23698 0)
(0.829297 3.24915 0)
(0.782816 3.26066 0)
(0.736176 3.27151 0)
(0.689385 3.28169 0)
(0.642454 3.2912 0)
(0.595392 3.30004 0)
(0.548209 3.3082 0)
(0.500913 3.31569 0)
(0.453516 3.32251 0)
(0.406026 3.32865 0)
(0.358453 3.3341 0)
(0.310807 3.33888 0)
(0.263098 3.34298 0)
(0.215335 3.3464 0)
(0.167529 3.34913 0)
(0.119688 3.35118 0)
(0.0718224 3.35255 0)
(0.0239424 3.35323 0)
(3.33679 0.023825 0)
(3.33611 0.0714702 0)
(3.33475 0.119101 0)
(3.33271 0.166707 0)
(3.32999 0.21428 0)
(3.32659 0.261808 0)
(3.32251 0.309283 0)
(3.31776 0.356696 0)
(3.31232 0.404035 0)
(3.30622 0.451292 0)
(3.29944 0.498457 0)
(3.29198 0.545521 0)
(3.28386 0.592473 0)
(3.27506 0.639304 0)
(3.2656 0.686005 0)
(3.25547 0.732566 0)
(3.24468 0.778978 0)
(3.23322 0.825231 0)
(3.22111 0.871315 0)
(3.20834 0.917222 0)
(3.19491 0.962942 0)
(3.18084 1.00847 0)
(3.16611 1.05378 0)
(3.15074 1.09889 0)
(3.13473 1.14377 0)
(3.11808 1.18841 0)
(3.10079 1.23281 0)
(3.08287 1.27697 0)
(3.06432 1.32086 0)
(3.04515 1.36448 0)
(3.02535 1.40782 0)
(3.00494 1.45088 0)
(2.98392 1.49364 0)
(2.96228 1.5361 0)
(2.94005 1.57824 0)
(2.91721 1.62006 0)
(2.89378 1.66155 0)
(2.86976 1.70271 0)
(2.84515 1.74351 0)
(2.81997 1.78396 0)
(2.79421 1.82405 0)
(2.76787 1.86376 0)
(2.74098 1.9031 0)
(2.71352 1.94204 0)
(2.68552 1.98059 0)
(2.65696 2.01874 0)
(2.62786 2.05647 0)
(2.59823 2.09379 0)
(2.56807 2.13067 0)
(2.53738 2.16713 0)
(2.50618 2.20314 0)
(2.47446 2.2387 0)
(2.44224 2.27381 0)
(2.40952 2.30845 0)
(2.37631 2.34262 0)
(2.34262 2.37631 0)
(2.30845 2.40952 0)
(2.27381 2.44224 0)
(2.2387 2.47446 0)
(2.20314 2.50618 0)
(2.16713 2.53738 0)
(2.13067 2.56807 0)
(2.09379 2.59823 0)
(2.05647 2.62786 0)
(2.01874 2.65696 0)
(1.98059 2.68552 0)
(1.94204 2.71352 0)
(1.9031 2.74098 0)
(1.86376 2.76787 0)
(1.82405 2.79421 0)
(1.78396 2.81997 0)
(1.74351 2.84515 0)
(1.70271 2.86976 0)
(1.66155 2.89378 0)
(1.62006 2.91721 0)
(1.57824 2.94005 0)
(1.5361 2.96228 0)
(1.49364 2.98392 0)
(1.45088 3.00494 0)
(1.40782 3.02535 0)
(1.36448 3.04515 0)
(1.32086 3.06432 0)
(1.27697 3.08287 0)
(1.23281 3.10079 0)
(1.18841 3.11808 0)
(1.14377 3.13473 0)
(1.09889 3.15074 0)
(1.05378 3.16611 0)
(1.00847 3.18084 0)
(0.962942 3.19491 0)
(0.917222 3.20834 0)
(0.871315 3.22111 0)
(0.825231 3.23322 0)
(0.778978 3.24468 0)
(0.732566 3.25547 0)
(0.686005 3.2656 0)
(0.639304 3.27506 0)
(0.592473 3.28386 0)
(0.545521 3.29198 0)
(0.498457 3.29944 0)
(0.451292 3.30622 0)
(0.404035 3.31232 0)
(0.356696 3.31776 0)
(0.309283 3.32251 0)
(0.261808 3.32659 0)
(0.21428 3.32999 0)
(0.166707 3.33271 0)
(0.119101 3.33475 0)
(0.0714702 3.33611 0)
(0.023825 3.33679 0)
(3.32069 0.0237101 0)
(3.32001 0.0711254 0)
(3.31866 0.118526 0)
(3.31663 0.165903 0)
(3.31392 0.213246 0)
(3.31054 0.260545 0)
(3.30648 0.307791 0)
(3.30175 0.354975 0)
(3.29634 0.402086 0)
(3.29027 0.449115 0)
(3.28352 0.496052 0)
(3.2761 0.542889 0)
(3.26801 0.589614 0)
(3.25926 0.63622 0)
(3.24984 0.682695 0)
(3.23976 0.729032 0)
(3.22902 0.77522 0)
(3.21762 0.821249 0)
(3.20557 0.867112 0)
(3.19286 0.912797 0)
(3.1795 0.958296 0)
(3.16549 1.0036 0)
(3.15084 1.0487 0)
(3.13554 1.09358 0)
(3.11961 1.13825 0)
(3.10303 1.18268 0)
(3.08583 1.22687 0)
(3.068 1.27081 0)
(3.04954 1.31449 0)
(3.03046 1.3579 0)
(3.01076 1.40103 0)
(2.99044 1.44388 0)
(2.96952 1.48644 0)
(2.94799 1.52869 0)
(2.92586 1.57063 0)
(2.90314 1.61225 0)
(2.87982 1.65354 0)
(2.85591 1.69449 0)
(2.83143 1.7351 0)
(2.80636 1.77535 0)
(2.78072 1.81525 0)
(2.75452 1.85477 0)
(2.72775 1.89391 0)
(2.70043 1.93267 0)
(2.67256 1.97104 0)
(2.64414 2.009 0)
(2.61518 2.04655 0)
(2.58569 2.08368 0)
(2.55568 2.12039 0)
(2.52514 2.15667 0)
(2.49408 2.19251 0)
(2.46252 2.2279 0)
(2.43046 2.26284 0)
(2.3979 2.29731 0)
(2.36485 2.33132 0)
(2.33132 2.36485 0)
(2.29731 2.3979 0)
(2.26284 2.43046 0)
(2.2279 2.46252 0)
(2.19251 2.49408 0)
(2.15667 2.52514 0)
(2.12039 2.55568 0)
(2.08368 2.58569 0)
(2.04655 2.61518 0)
(2.009 2.64414 0)
(1.97104 2.67256 0)
(1.93267 2.70043 0)
(1.89391 2.72775 0)
(1.85477 2.75452 0)
(1.81525 2.78072 0)
(1.77535 2.80636 0)
(1.7351 2.83143 0)
(1.69449 2.85591 0)
(1.65354 2.87982 0)
(1.61225 2.90314 0)
(1.57063 2.92586 0)
(1.52869 2.94799 0)
(1.48644 2.96952 0)
(1.44388 2.99044 0)
(1.40103 3.01076 0)
(1.3579 3.03046 0)
(1.31449 3.04954 0)
(1.27081 3.068 0)
(1.22687 3.08583 0)
(1.18268 3.10303 0)
(1.13825 3.11961 0)
(1.09358 3.13554 0)
(1.0487 3.15084 0)
(1.0036 3.16549 0)
(0.958296 3.1795 0)
(0.912797 3.19286 0)
(0.867112 3.20557 0)
(0.821249 3.21762 0)
(0.77522 3.22902 0)
(0.729032 3.23976 0)
(0.682695 3.24984 0)
(0.63622 3.25926 0)
(0.589614 3.26801 0)
(0.542889 3.2761 0)
(0.496052 3.28352 0)
(0.449115 3.29027 0)
(0.402086 3.29634 0)
(0.354975 3.30175 0)
(0.307791 3.30648 0)
(0.260545 3.31054 0)
(0.213246 3.31392 0)
(0.165903 3.31663 0)
(0.118526 3.31866 0)
(0.0711254 3.32001 0)
(0.0237101 3.32069 0)
(3.30493 0.0235975 0)
(3.30425 0.0707877 0)
(3.3029 0.117964 0)
(3.30088 0.165115 0)
(3.29819 0.212233 0)
(3.29482 0.259308 0)
(3.29078 0.30633 0)
(3.28607 0.353289 0)
(3.28069 0.400177 0)
(3.27464 0.446983 0)
(3.26793 0.493697 0)
(3.26055 0.540311 0)
(3.2525 0.586815 0)
(3.24379 0.633199 0)
(3.23441 0.679454 0)
(3.22438 0.725571 0)
(3.21369 0.771539 0)
(3.20235 0.817351 0)
(3.19035 0.862995 0)
(3.1777 0.908464 0)
(3.16441 0.953747 0)
(3.15046 0.998836 0)
(3.13588 1.04372 0)
(3.12066 1.08839 0)
(3.1048 1.13284 0)
(3.0883 1.17706 0)
(3.07118 1.22104 0)
(3.05343 1.26477 0)
(3.03506 1.30825 0)
(3.01607 1.35145 0)
(2.99646 1.39438 0)
(2.97625 1.43703 0)
(2.95542 1.47938 0)
(2.934 1.52143 0)
(2.91197 1.56317 0)
(2.88936 1.60459 0)
(2.86615 1.64569 0)
(2.84236 1.68645 0)
(2.81798 1.72686 0)
(2.79304 1.76693 0)
(2.76752 1.80663 0)
(2.74144 1.84596 0)
(2.7148 1.88492 0)
(2.68761 1.9235 0)
(2.65987 1.96168 0)
(2.63159 1.99946 0)
(2.60277 2.03683 0)
(2.57342 2.07379 0)
(2.54354 2.11033 0)
(2.51315 2.14643 0)
(2.48224 2.1821 0)
(2.45083 2.21732 0)
(2.41892 2.25209 0)
(2.38651 2.2864 0)
(2.35362 2.32025 0)
(2.32025 2.35362 0)
(2.2864 2.38651 0)
(2.25209 2.41892 0)
(2.21732 2.45083 0)
(2.1821 2.48224 0)
(2.14643 2.51315 0)
(2.11033 2.54354 0)
(2.07379 2.57342 0)
(2.03683 2.60277 0)
(1.99946 2.63159 0)
(1.96168 2.65987 0)
(1.9235 2.68761 0)
(1.88492 2.7148 0)
(1.84596 2.74144 0)
(1.80663 2.76752 0)
(1.76693 2.79304 0)
(1.72686 2.81798 0)
(1.68645 2.84236 0)
(1.64569 2.86615 0)
(1.60459 2.88936 0)
(1.56317 2.91197 0)
(1.52143 2.934 0)
(1.47938 2.95542 0)
(1.43703 2.97625 0)
(1.39438 2.99646 0)
(1.35145 3.01607 0)
(1.30825 3.03506 0)
(1.26477 3.05343 0)
(1.22104 3.07118 0)
(1.17706 3.0883 0)
(1.13284 3.1048 0)
(1.08839 3.12066 0)
(1.04372 3.13588 0)
(0.998836 3.15046 0)
(0.953747 3.16441 0)
(0.908464 3.1777 0)
(0.862995 3.19035 0)
(0.817351 3.20235 0)
(0.771539 3.21369 0)
(0.725571 3.22438 0)
(0.679454 3.23441 0)
(0.633199 3.24379 0)
(0.586815 3.2525 0)
(0.540311 3.26055 0)
(0.493697 3.26793 0)
(0.446983 3.27464 0)
(0.400177 3.28069 0)
(0.353289 3.28607 0)
(0.30633 3.29078 0)
(0.259308 3.29482 0)
(0.212233 3.29819 0)
(0.165115 3.30088 0)
(0.117964 3.3029 0)
(0.0707877 3.30425 0)
(0.0235975 3.30493 0)
(3.28949 0.0234873 0)
(3.28882 0.0704571 0)
(3.28748 0.117413 0)
(3.28547 0.164344 0)
(3.28279 0.211242 0)
(3.27943 0.258097 0)
(3.27541 0.304899 0)
(3.27073 0.35164 0)
(3.26537 0.398308 0)
(3.25935 0.444895 0)
(3.25267 0.491392 0)
(3.24532 0.537788 0)
(3.23731 0.584075 0)
(3.22864 0.630242 0)
(3.21931 0.676281 0)
(3.20932 0.722182 0)
(3.19868 0.767936 0)
(3.18739 0.813533 0)
(3.17545 0.858965 0)
(3.16286 0.904221 0)
(3.14963 0.949293 0)
(3.13575 0.994171 0)
(3.12123 1.03885 0)
(3.10608 1.08331 0)
(3.0903 1.12755 0)
(3.07388 1.17157 0)
(3.05684 1.21534 0)
(3.03917 1.25887 0)
(3.02089 1.30214 0)
(3.00198 1.34514 0)
(2.98247 1.38787 0)
(2.96235 1.43032 0)
(2.94162 1.47247 0)
(2.9203 1.51433 0)
(2.89837 1.55587 0)
(2.87586 1.5971 0)
(2.85276 1.638 0)
(2.82908 1.67857 0)
(2.80482 1.7188 0)
(2.77999 1.75867 0)
(2.7546 1.79819 0)
(2.72864 1.83734 0)
(2.70213 1.87612 0)
(2.67506 1.91451 0)
(2.64745 1.95252 0)
(2.6193 1.99012 0)
(2.59061 2.02732 0)
(2.5614 2.06411 0)
(2.53166 2.10047 0)
(2.50141 2.13641 0)
(2.47065 2.17191 0)
(2.43939 2.20697 0)
(2.40762 2.24158 0)
(2.37537 2.27573 0)
(2.34263 2.30941 0)
(2.30941 2.34263 0)
(2.27573 2.37537 0)
(2.24158 2.40762 0)
(2.20697 2.43939 0)
(2.17191 2.47065 0)
(2.13641 2.50141 0)
(2.10047 2.53166 0)
(2.06411 2.5614 0)
(2.02732 2.59061 0)
(1.99012 2.6193 0)
(1.95252 2.64745 0)
(1.91451 2.67506 0)
(1.87612 2.70213 0)
(1.83734 2.72864 0)
(1.79819 2.7546 0)
(1.75867 2.77999 0)
(1.7188 2.80482 0)
(1.67857 2.82908 0)
(1.638 2.85276 0)
(1.5971 2.87586 0)
(1.55587 2.89837 0)
(1.51433 2.9203 0)
(1.47247 2.94162 0)
(1.43032 2.96235 0)
(1.38787 2.98247 0)
(1.34514 3.00198 0)
(1.30214 3.02089 0)
(1.25887 3.03917 0)
(1.21534 3.05684 0)
(1.17157 3.07388 0)
(1.12755 3.0903 0)
(1.08331 3.10608 0)
(1.03885 3.12123 0)
(0.994171 3.13575 0)
(0.949293 3.14963 0)
(0.904221 3.16286 0)
(0.858965 3.17545 0)
(0.813533 3.18739 0)
(0.767936 3.19868 0)
(0.722182 3.20932 0)
(0.676281 3.21931 0)
(0.630242 3.22864 0)
(0.584075 3.23731 0)
(0.537788 3.24532 0)
(0.491392 3.25267 0)
(0.444895 3.25935 0)
(0.398308 3.26537 0)
(0.35164 3.27073 0)
(0.304899 3.27541 0)
(0.258097 3.27943 0)
(0.211242 3.28279 0)
(0.164344 3.28547 0)
(0.117413 3.28748 0)
(0.0704571 3.28882 0)
(0.0234873 3.28949 0)
(3.27438 0.0233794 0)
(3.27371 0.0701335 0)
(3.27238 0.116873 0)
(3.27037 0.163589 0)
(3.26771 0.210272 0)
(3.26437 0.256911 0)
(3.26037 0.303499 0)
(3.2557 0.350024 0)
(3.25037 0.396478 0)
(3.24438 0.442851 0)