/*--------------------------------*- C++ -*----------------------------------*\
| =========                 |                                                 |
| \\      /  F ield         | OpenFOAM: The Open Source CFD Toolbox           |
|  \\    /   O peration     | Version:  2312                                  |
|   \\  /    A nd           | Website:  www.openfoam.com                      |
|    \\/     M anipulation  |                                                 |
\*---------------------------------------------------------------------------*/
FoamFile
{
    version     2.0;
    format      ascii;
    arch        "LSB;label=32;scalar=64";
    class       pointVectorField;
    location    "80";
    object      pointD;
}
// * * * * * * * * * * * * * * * * * * * * * * * * * * * * * * * * * * * * * //

dimensions      [0 1 0 0 0 0 0];

internalField   nonuniform List<vector> 
26196
(
(3.50778 0 0)
(2.75762 0 0)
(0 3.50778 0)
(0 2.75762 0)
(3.50778 0 0)
(2.75762 0 0)
(0 2.75762 0)
(0 3.50778 0)
(3.48818 0 0)
(3.46893 0 0)
(3.45017 0 0)
(3.43173 0 0)
(3.41369 0 0)
(3.396 0 0)
(3.37869 0 0)
(3.36173 0 0)
(3.34511 0 0)
(3.32884 0 0)
(3.31291 0 0)
(3.29731 0 0)
(3.28204 0 0)
(3.26709 0 0)
(3.25245 0 0)
(3.23813 0 0)
(3.22411 0 0)
(3.21039 0 0)
(3.19696 0 0)
(3.18383 0 0)
(3.17098 0 0)
(3.15841 0 0)
(3.14612 0 0)
(3.13409 0 0)
(3.12234 0 0)
(3.11084 0 0)
(3.0996 0 0)
(3.08862 0 0)
(3.07788 0 0)
(3.06739 0 0)
(3.05714 0 0)
(3.04712 0 0)
(3.03734 0 0)
(3.02778 0 0)
(3.01845 0 0)
(3.00934 0 0)
(3.00045 0 0)
(2.99177 0 0)
(2.98329 0 0)
(2.97503 0 0)
(2.96696 0 0)
(2.9591 0 0)
(2.95143 0 0)
(2.94395 0 0)
(2.93666 0 0)
(2.92956 0 0)
(2.92264 0 0)
(2.9159 0 0)
(2.90934 0 0)
(2.90295 0 0)
(2.89674 0 0)
(2.89069 0 0)
(2.8848 0 0)
(2.87908 0 0)
(2.87352 0 0)
(2.86812 0 0)
(2.86287 0 0)
(2.85777 0 0)
(2.85282 0 0)
(2.84802 0 0)
(2.84337 0 0)
(2.83886 0 0)
(2.83449 0 0)
(2.83026 0 0)
(2.82616 0 0)
(2.8222 0 0)
(2.81836 0 0)
(2.81466 0 0)
(2.81109 0 0)
(2.80764 0 0)
(2.80432 0 0)
(2.80111 0 0)
(2.79803 0 0)
(2.79507 0 0)
(2.79222 0 0)
(2.78948 0 0)
(2.78686 0 0)
(2.78435 0 0)
(2.78195 0 0)
(2.77965 0 0)
(2.77746 0 0)
(2.77538 0 0)
(2.7734 0 0)
(2.77152 0 0)
(2.76974 0 0)
(2.76805 0 0)
(2.76647 0 0)
(2.76498 0 0)
(2.76358 0 0)
(2.76228 0 0)
(2.76107 0 0)
(2.75994 0 0)
(2.75891 0 0)
(2.75796 0 0)
(2.7571 0 0)
(2.75632 0 0)
(2.75563 0 0)
(2.75502 0 0)
(2.75449 0 0)
(2.75404 0 0)
(2.75367 0 0)
(2.75338 0 0)
(2.75316 0 0)
(2.75302 0 0)
(2.75295 0 0)
(2.75296 0 0)
(2.75304 0 0)
(2.75319 0 0)
(2.75341 0 0)
(2.7537 0 0)
(2.75406 0 0)
(2.75449 0 0)
(2.75498 0 0)
(2.75555 0 0)
(2.75617 0 0)
(2.75687 0 0)
(2.75734 0.0393774 0)
(2.75649 0.0787467 0)
(2.75509 0.1181 0)
(2.75312 0.157429 0)
(2.75059 0.196726 0)
(2.7475 0.235983 0)
(2.74385 0.275192 0)
(2.73964 0.314345 0)
(2.73488 0.353434 0)
(2.72955 0.39245 0)
(2.72367 0.431387 0)
(2.71723 0.470235 0)
(2.71024 0.508988 0)
(2.70269 0.547637 0)
(2.6946 0.586174 0)
(2.68595 0.624592 0)
(2.67676 0.662882 0)
(2.66702 0.701037 0)
(2.65674 0.73905 0)
(2.64592 0.776911 0)
(2.63455 0.814614 0)
(2.62265 0.852151 0)
(2.61022 0.889515 0)
(2.59725 0.926696 0)
(2.58375 0.963689 0)
(2.56973 1.00049 0)
(2.55518 1.03708 0)
(2.54011 1.07346 0)
(2.52452 1.10962 0)
(2.50842 1.14556 0)
(2.49181 1.18126 0)
(2.47468 1.21672 0)
(2.45706 1.25193 0)
(2.43893 1.28689 0)
(2.4203 1.32159 0)
(2.40119 1.35601 0)
(2.38158 1.39016 0)
(2.36148 1.42403 0)
(2.34091 1.4576 0)
(2.31986 1.49088 0)
(2.29833 1.52386 0)
(2.27634 1.55652 0)
(2.25388 1.58887 0)
(2.23096 1.62089 0)
(2.20759 1.65258 0)
(2.18377 1.68393 0)
(2.1595 1.71495 0)
(2.13479 1.74561 0)
(2.10964 1.77591 0)
(2.08407 1.80586 0)
(2.05807 1.83543 0)
(2.03165 1.86463 0)
(2.00482 1.89345 0)
(1.97758 1.92189 0)
(1.94993 1.94993 0)
(1.92189 1.97758 0)
(1.89345 2.00482 0)
(1.86463 2.03165 0)
(1.83543 2.05807 0)
(1.80586 2.08407 0)
(1.77591 2.10964 0)
(1.74561 2.13479 0)
(1.71495 2.1595 0)
(1.68393 2.18377 0)
(1.65258 2.20759 0)
(1.62089 2.23096 0)
(1.58887 2.25388 0)
(1.55652 2.27634 0)
(1.52386 2.29833 0)
(1.49088 2.31986 0)
(1.4576 2.34091 0)
(1.42403 2.36148 0)
(1.39016 2.38158 0)
(1.35601 2.40119 0)
(1.32159 2.4203 0)
(1.28689 2.43893 0)
(1.25193 2.45706 0)
(1.21672 2.47468 0)
(1.18126 2.49181 0)
(1.14556 2.50842 0)
(1.10962 2.52452 0)
(1.07346 2.54011 0)
(1.03708 2.55518 0)
(1.00049 2.56973 0)
(0.963689 2.58375 0)
(0.926696 2.59725 0)
(0.889515 2.61022 0)
(0.852151 2.62265 0)
(0.814614 2.63455 0)
(0.776911 2.64592 0)
(0.73905 2.65674 0)
(0.701037 2.66702 0)
(0.662882 2.67676 0)
(0.624592 2.68595 0)
(0.586174 2.6946 0)
(0.547637 2.70269 0)
(0.508988 2.71024 0)
(0.470235 2.71723 0)
(0.431387 2.72367 0)
(0.39245 2.72955 0)
(0.353434 2.73488 0)
(0.314345 2.73964 0)
(0.275192 2.74385 0)
(0.235983 2.7475 0)
(0.196726 2.75059 0)
(0.157429 2.75312 0)
(0.1181 2.75509 0)
(0.0787467 2.75649 0)
(0.0393774 2.75734 0)
(0 2.75687 0)
(0 2.75617 0)
(0 2.75555 0)
(0 2.75498 0)
(0 2.75449 0)
(0 2.75406 0)
(0 2.7537 0)
(0 2.75341 0)
(0 2.75319 0)
(0 2.75304 0)
(0 2.75296 0)
(0 2.75295 0)
(0 2.75302 0)
(0 2.75316 0)
(0 2.75338 0)
(0 2.75367 0)
(0 2.75404 0)
(0 2.75449 0)
(0 2.75502 0)
(0 2.75563 0)
(0 2.75632 0)
(0 2.7571 0)
(0 2.75796 0)
(0 2.75891 0)
(0 2.75994 0)
(0 2.76107 0)
(0 2.76228 0)
(0 2.76358 0)
(0 2.76498 0)
(0 2.76647 0)
(0 2.76805 0)
(0 2.76974 0)
(0 2.77152 0)
(0 2.7734 0)
(0 2.77538 0)
(0 2.77746 0)
(0 2.77965 0)
(0 2.78195 0)
(0 2.78435 0)
(0 2.78686 0)
(0 2.78948 0)
(0 2.79222 0)
(0 2.79507 0)
(0 2.79803 0)
(0 2.80111 0)
(0 2.80432 0)
(0 2.80764 0)
(0 2.81109 0)
(0 2.81466 0)
(0 2.81836 0)
(0 2.8222 0)
(0 2.82616 0)
(0 2.83026 0)
(0 2.83449 0)
(0 2.83886 0)
(0 2.84337 0)
(0 2.84802 0)
(0 2.85282 0)
(0 2.85777 0)
(0 2.86287 0)
(0 2.86812 0)
(0 2.87352 0)
(0 2.87908 0)
(0 2.8848 0)
(0 2.89069 0)
(0 2.89674 0)
(0 2.90295 0)
(0 2.90934 0)
(0 2.9159 0)
(0 2.92264 0)
(0 2.92956 0)
(0 2.93666 0)
(0 2.94395 0)
(0 2.95143 0)
(0 2.9591 0)
(0 2.96696 0)
(0 2.97503 0)
(0 2.98329 0)
(0 2.99177 0)
(0 3.00045 0)
(0 3.00934 0)
(0 3.01845 0)
(0 3.02778 0)
(0 3.03734 0)
(0 3.04712 0)
(0 3.05714 0)
(0 3.06739 0)
(0 3.07788 0)
(0 3.08862 0)
(0 3.0996 0)
(0 3.11084 0)
(0 3.12234 0)
(0 3.13409 0)
(0 3.14612 0)
(0 3.15841 0)
(0 3.17098 0)
(0 3.18383 0)
(0 3.19696 0)
(0 3.21039 0)
(0 3.22411 0)
(0 3.23813 0)
(0 3.25245 0)
(0 3.26709 0)
(0 3.28204 0)
(0 3.29731 0)
(0 3.31291 0)
(0 3.32884 0)
(0 3.34511 0)
(0 3.36173 0)
(0 3.37869 0)
(0 3.396 0)
(0 3.41369 0)
(0 3.43173 0)
(0 3.45017 0)
(0 3.46893 0)
(0 3.48818 0)
(0.0500893 3.50742 0)
(0.100168 3.50635 0)
(0.150227 3.50456 0)
(0.200255 3.50206 0)
(0.250242 3.49884 0)
(0.300178 3.49491 0)
(0.350053 3.49027 0)
(0.399857 3.48491 0)
(0.449579 3.47885 0)
(0.499209 3.47207 0)
(0.548737 3.46459 0)
(0.598154 3.4564 0)
(0.647449 3.44751 0)
(0.696611 3.43791 0)
(0.745632 3.42761 0)
(0.794501 3.41662 0)
(0.843207 3.40492 0)
(0.891742 3.39254 0)
(0.940094 3.37946 0)
(0.988255 3.36569 0)
(1.03621 3.35123 0)
(1.08396 3.3361 0)
(1.13149 3.32028 0)
(1.17879 3.30378 0)
(1.22584 3.28661 0)
(1.27265 3.26877 0)
(1.3192 3.25027 0)
(1.36547 3.2311 0)
(1.41147 3.21127 0)
(1.45718 3.19079 0)
(1.5026 3.16965 0)
(1.54771 3.14788 0)
(1.5925 3.12545 0)
(1.63697 3.10239 0)
(1.6811 3.0787 0)
(1.72489 3.05438 0)
(1.76833 3.02944 0)
(1.81141 3.00388 0)
(1.85412 2.97771 0)
(1.89645 2.95093 0)
(1.93839 2.92355 0)
(1.97994 2.89557 0)
(2.02109 2.867 0)
(2.06182 2.83785 0)
(2.10213 2.80812 0)
(2.14202 2.77782 0)
(2.18146 2.74695 0)
(2.22047 2.71552 0)
(2.25902 2.68353 0)
(2.29711 2.651 0)
(2.33473 2.61793 0)
(2.37187 2.58432 0)
(2.40853 2.55019 0)
(2.4447 2.51554 0)
(2.48037 2.48037 0)
(2.51554 2.4447 0)
(2.55019 2.40853 0)
(2.58432 2.37187 0)
(2.61793 2.33473 0)
(2.651 2.29711 0)
(2.68353 2.25902 0)
(2.71552 2.22047 0)
(2.74695 2.18146 0)
(2.77782 2.14202 0)
(2.80812 2.10213 0)
(2.83785 2.06182 0)
(2.867 2.02109 0)
(2.89557 1.97994 0)
(2.92355 1.93839 0)
(2.95093 1.89645 0)
(2.97771 1.85412 0)
(3.00388 1.81141 0)
(3.02944 1.76833 0)
(3.05438 1.72489 0)
(3.0787 1.6811 0)
(3.10239 1.63697 0)
(3.12545 1.5925 0)
(3.14788 1.54771 0)
(3.16965 1.5026 0)
(3.19079 1.45718 0)
(3.21127 1.41147 0)
(3.2311 1.36547 0)
(3.25027 1.3192 0)
(3.26877 1.27265 0)
(3.28661 1.22584 0)
(3.30378 1.17879 0)
(3.32028 1.13149 0)
(3.3361 1.08396 0)
(3.35123 1.03621 0)
(3.36569 0.988255 0)
(3.37946 0.940094 0)
(3.39254 0.891742 0)
(3.40492 0.843207 0)
(3.41662 0.794501 0)
(3.42761 0.745632 0)
(3.43791 0.696611 0)
(3.44751 0.647449 0)
(3.4564 0.598154 0)
(3.46459 0.548737 0)
(3.47207 0.499209 0)
(3.47885 0.449579 0)
(3.48491 0.399857 0)
(3.49027 0.350053 0)
(3.49491 0.300178 0)
(3.49884 0.250242 0)
(3.50206 0.200255 0)
(3.50456 0.150227 0)
(3.50635 0.100168 0)
(3.50742 0.0500893 0)
(3.48818 0 0)
(3.46893 0 0)
(3.45017 0 0)
(3.43173 0 0)
(3.41369 0 0)
(3.396 0 0)
(3.37869 0 0)
(3.36173 0 0)
(3.34511 0 0)
(3.32884 0 0)
(3.31291 0 0)
(3.29731 0 0)
(3.28204 0 0)
(3.26709 0 0)
(3.25245 0 0)
(3.23813 0 0)
(3.22411 0 0)
(3.21039 0 0)
(3.19696 0 0)
(3.18383 0 0)
(3.17098 0 0)
(3.15841 0 0)
(3.14612 0 0)
(3.13409 0 0)
(3.12234 0 0)
(3.11084 0 0)
(3.0996 0 0)
(3.08862 0 0)
(3.07788 0 0)
(3.06739 0 0)
(3.05714 0 0)
(3.04712 0 0)
(3.03734 0 0)
(3.02778 0 0)
(3.01845 0 0)
(3.00934 0 0)
(3.00045 0 0)
(2.99177 0 0)
(2.98329 0 0)
(2.97503 0 0)
(2.96696 0 0)
(2.9591 0 0)
(2.95143 0 0)
(2.94395 0 0)
(2.93666 0 0)
(2.92956 0 0)
(2.92264 0 0)
(2.9159 0 0)
(2.90934 0 0)
(2.90295 0 0)
(2.89674 0 0)
(2.89069 0 0)
(2.8848 0 0)
(2.87908 0 0)
(2.87352 0 0)
(2.86812 0 0)
(2.86287 0 0)
(2.85777 0 0)
(2.85282 0 0)
(2.84802 0 0)
(2.84337 0 0)
(2.83886 0 0)
(2.83449 0 0)
(2.83026 0 0)
(2.82616 0 0)
(2.8222 0 0)
(2.81836 0 0)
(2.81466 0 0)
(2.81109 0 0)
(2.80764 0 0)
(2.80432 0 0)
(2.80111 0 0)
(2.79803 0 0)
(2.79507 0 0)
(2.79222 0 0)
(2.78948 0 0)
(2.78686 0 0)
(2.78435 0 0)
(2.78195 0 0)
(2.77965 0 0)
(2.77746 0 0)
(2.77538 0 0)
(2.7734 0 0)
(2.77152 0 0)
(2.76974 0 0)
(2.76805 0 0)
(2.76647 0 0)
(2.76498 0 0)
(2.76358 0 0)
(2.76228 0 0)
(2.76107 0 0)
(2.75994 0 0)
(2.75891 0 0)
(2.75796 0 0)
(2.7571 0 0)
(2.75632 0 0)
(2.75563 0 0)
(2.75502 0 0)
(2.75449 0 0)
(2.75404 0 0)
(2.75367 0 0)
(2.75338 0 0)
(2.75316 0 0)
(2.75302 0 0)
(2.75295 0 0)
(2.75296 0 0)
(2.75304 0 0)
(2.75319 0 0)
(2.75341 0 0)
(2.7537 0 0)
(2.75406 0 0)
(2.75449 0 0)
(2.75498 0 0)
(2.75555 0 0)
(2.75617 0 0)
(2.75687 0 0)
(2.75734 0.0393774 0)
(2.75649 0.0787467 0)
(2.75509 0.1181 0)
(2.75312 0.157429 0)
(2.75059 0.196726 0)
(2.7475 0.235983 0)
(2.74385 0.275192 0)
(2.73964 0.314345 0)
(2.73488 0.353434 0)
(2.72955 0.39245 0)
(2.72367 0.431387 0)
(2.71723 0.470235 0)
(2.71024 0.508988 0)
(2.70269 0.547637 0)
(2.6946 0.586174 0)
(2.68595 0.624592 0)
(2.67676 0.662882 0)
(2.66702 0.701037 0)
(2.65674 0.73905 0)
(2.64592 0.776911 0)
(2.63455 0.814614 0)
(2.62265 0.852151 0)
(2.61022 0.889515 0)
(2.59725 0.926696 0)
(2.58375 0.963689 0)
(2.56973 1.00049 0)
(2.55518 1.03708 0)
(2.54011 1.07346 0)
(2.52452 1.10962 0)
(2.50842 1.14556 0)
(2.49181 1.18126 0)
(2.47468 1.21672 0)
(2.45706 1.25193 0)
(2.43893 1.28689 0)
(2.4203 1.32159 0)
(2.40119 1.35601 0)
(2.38158 1.39016 0)
(2.36148 1.42403 0)
(2.34091 1.4576 0)
(2.31986 1.49088 0)
(2.29833 1.52386 0)
(2.27634 1.55652 0)
(2.25388 1.58887 0)
(2.23096 1.62089 0)
(2.20759 1.65258 0)
(2.18377 1.68393 0)
(2.1595 1.71495 0)
(2.13479 1.74561 0)
(2.10964 1.77591 0)
(2.08407 1.80586 0)
(2.05807 1.83543 0)
(2.03165 1.86463 0)
(2.00482 1.89345 0)
(1.97758 1.92189 0)
(1.94993 1.94993 0)
(1.92189 1.97758 0)
(1.89345 2.00482 0)
(1.86463 2.03165 0)
(1.83543 2.05807 0)
(1.80586 2.08407 0)
(1.77591 2.10964 0)
(1.74561 2.13479 0)
(1.71495 2.1595 0)
(1.68393 2.18377 0)
(1.65258 2.20759 0)
(1.62089 2.23096 0)
(1.58887 2.25388 0)
(1.55652 2.27634 0)
(1.52386 2.29833 0)
(1.49088 2.31986 0)
(1.4576 2.34091 0)
(1.42403 2.36148 0)
(1.39016 2.38158 0)
(1.35601 2.40119 0)
(1.32159 2.4203 0)
(1.28689 2.43893 0)
(1.25193 2.45706 0)
(1.21672 2.47468 0)
(1.18126 2.49181 0)
(1.14556 2.50842 0)
(1.10962 2.52452 0)
(1.07346 2.54011 0)
(1.03708 2.55518 0)
(1.00049 2.56973 0)
(0.963689 2.58375 0)
(0.926696 2.59725 0)
(0.889515 2.61022 0)
(0.852151 2.62265 0)
(0.814614 2.63455 0)
(0.776911 2.64592 0)
(0.73905 2.65674 0)
(0.701037 2.66702 0)
(0.662882 2.67676 0)
(0.624592 2.68595 0)
(0.586174 2.6946 0)
(0.547637 2.70269 0)
(0.508988 2.71024 0)
(0.470235 2.71723 0)
(0.431387 2.72367 0)
(0.39245 2.72955 0)
(0.353434 2.73488 0)
(0.314345 2.73964 0)
(0.275192 2.74385 0)
(0.235983 2.7475 0)
(0.196726 2.75059 0)
(0.157429 2.75312 0)
(0.1181 2.75509 0)
(0.0787467 2.75649 0)
(0.0393774 2.75734 0)
(0 2.75687 0)
(0 2.75617 0)
(0 2.75555 0)
(0 2.75498 0)
(0 2.75449 0)
(0 2.75406 0)
(0 2.7537 0)
(0 2.75341 0)
(0 2.75319 0)
(0 2.75304 0)
(0 2.75296 0)
(0 2.75295 0)
(0 2.75302 0)
(0 2.75316 0)
(0 2.75338 0)
(0 2.75367 0)
(0 2.75404 0)
(0 2.75449 0)
(0 2.75502 0)
(0 2.75563 0)
(0 2.75632 0)
(0 2.7571 0)
(0 2.75796 0)
(0 2.75891 0)
(0 2.75994 0)
(0 2.76107 0)
(0 2.76228 0)
(0 2.76358 0)
(0 2.76498 0)
(0 2.76647 0)
(0 2.76805 0)
(0 2.76974 0)
(0 2.77152 0)
(0 2.7734 0)
(0 2.77538 0)
(0 2.77746 0)
(0 2.77965 0)
(0 2.78195 0)
(0 2.78435 0)
(0 2.78686 0)
(0 2.78948 0)
(0 2.79222 0)
(0 2.79507 0)
(0 2.79803 0)
(0 2.80111 0)
(0 2.80432 0)
(0 2.80764 0)
(0 2.81109 0)
(0 2.81466 0)
(0 2.81836 0)
(0 2.8222 0)
(0 2.82616 0)
(0 2.83026 0)
(0 2.83449 0)
(0 2.83886 0)
(0 2.84337 0)
(0 2.84802 0)
(0 2.85282 0)
(0 2.85777 0)
(0 2.86287 0)
(0 2.86812 0)
(0 2.87352 0)
(0 2.87908 0)
(0 2.8848 0)
(0 2.89069 0)
(0 2.89674 0)
(0 2.90295 0)
(0 2.90934 0)
(0 2.9159 0)
(0 2.92264 0)
(0 2.92956 0)
(0 2.93666 0)
(0 2.94395 0)
(0 2.95143 0)
(0 2.9591 0)
(0 2.96696 0)
(0 2.97503 0)
(0 2.98329 0)
(0 2.99177 0)
(0 3.00045 0)
(0 3.00934 0)
(0 3.01845 0)
(0 3.02778 0)
(0 3.03734 0)
(0 3.04712 0)
(0 3.05714 0)
(0 3.06739 0)
(0 3.07788 0)
(0 3.08862 0)
(0 3.0996 0)
(0 3.11084 0)
(0 3.12234 0)
(0 3.13409 0)
(0 3.14612 0)
(0 3.15841 0)
(0 3.17098 0)
(0 3.18383 0)
(0 3.19696 0)
(0 3.21039 0)
(0 3.22411 0)
(0 3.23813 0)
(0 3.25245 0)
(0 3.26709 0)
(0 3.28204 0)
(0 3.29731 0)
(0 3.31291 0)
(0 3.32884 0)
(0 3.34511 0)
(0 3.36173 0)
(0 3.37869 0)
(0 3.396 0)
(0 3.41369 0)
(0 3.43173 0)
(0 3.45017 0)
(0 3.46893 0)
(0 3.48818 0)
(0.0500893 3.50742 0)
(0.100168 3.50635 0)
(0.150227 3.50456 0)
(0.200255 3.50206 0)
(0.250242 3.49884 0)
(0.300178 3.49491 0)
(0.350053 3.49027 0)
(0.399857 3.48491 0)
(0.449579 3.47885 0)
(0.499209 3.47207 0)
(0.548737 3.46459 0)
(0.598154 3.4564 0)
(0.647449 3.44751 0)
(0.696611 3.43791 0)
(0.745632 3.42761 0)
(0.794501 3.41662 0)
(0.843207 3.40492 0)
(0.891742 3.39254 0)
(0.940094 3.37946 0)
(0.988255 3.36569 0)
(1.03621 3.35123 0)
(1.08396 3.3361 0)
(1.13149 3.32028 0)
(1.17879 3.30378 0)
(1.22584 3.28661 0)
(1.27265 3.26877 0)
(1.3192 3.25027 0)
(1.36547 3.2311 0)
(1.41147 3.21127 0)
(1.45718 3.19079 0)
(1.5026 3.16965 0)
(1.54771 3.14788 0)
(1.5925 3.12545 0)
(1.63697 3.10239 0)
(1.6811 3.0787 0)
(1.72489 3.05438 0)
(1.76833 3.02944 0)
(1.81141 3.00388 0)
(1.85412 2.97771 0)
(1.89645 2.95093 0)
(1.93839 2.92355 0)
(1.97994 2.89557 0)
(2.02109 2.867 0)
(2.06182 2.83785 0)
(2.10213 2.80812 0)
(2.14202 2.77782 0)
(2.18146 2.74695 0)
(2.22047 2.71552 0)
(2.25902 2.68353 0)
(2.29711 2.651 0)
(2.33473 2.61793 0)
(2.37187 2.58432 0)
(2.40853 2.55019 0)
(2.4447 2.51554 0)
(2.48037 2.48037 0)
(2.51554 2.4447 0)
(2.55019 2.40853 0)
(2.58432 2.37187 0)
(2.61793 2.33473 0)
(2.651 2.29711 0)
(2.68353 2.25902 0)
(2.71552 2.22047 0)
(2.74695 2.18146 0)
(2.77782 2.14202 0)
(2.80812 2.10213 0)
(2.83785 2.06182 0)
(2.867 2.02109 0)
(2.89557 1.97994 0)
(2.92355 1.93839 0)
(2.95093 1.89645 0)
(2.97771 1.85412 0)
(3.00388 1.81141 0)
(3.02944 1.76833 0)
(3.05438 1.72489 0)
(3.0787 1.6811 0)
(3.10239 1.63697 0)
(3.12545 1.5925 0)
(3.14788 1.54771 0)
(3.16965 1.5026 0)
(3.19079 1.45718 0)
(3.21127 1.41147 0)
(3.2311 1.36547 0)
(3.25027 1.3192 0)
(3.26877 1.27265 0)
(3.28661 1.22584 0)
(3.30378 1.17879 0)
(3.32028 1.13149 0)
(3.3361 1.08396 0)
(3.35123 1.03621 0)
(3.36569 0.988255 0)
(3.37946 0.940094 0)
(3.39254 0.891742 0)
(3.40492 0.843207 0)
(3.41662 0.794501 0)
(3.42761 0.745632 0)
(3.43791 0.696611 0)
(3.44751 0.647449 0)
(3.4564 0.598154 0)
(3.46459 0.548737 0)
(3.47207 0.499209 0)
(3.47885 0.449579 0)
(3.48491 0.399857 0)
(3.49027 0.350053 0)
(3.49491 0.300178 0)
(3.49884 0.250242 0)
(3.50206 0.200255 0)
(3.50456 0.150227 0)
(3.50635 0.100168 0)
(3.50742 0.0500893 0)
(3.48782 0.0498094 0)
(3.48676 0.0996086 0)
(3.48498 0.149388 0)
(3.48249 0.199136 0)
(3.47929 0.248844 0)
(3.47538 0.298501 0)
(3.47077 0.348097 0)
(3.46544 0.397622 0)
(3.45941 0.447067 0)
(3.45267 0.49642 0)
(3.44523 0.545671 0)
(3.43709 0.594812 0)
(3.42825 0.643831 0)
(3.4187 0.692719 0)
(3.40846 0.741466 0)
(3.39753 0.790061 0)
(3.3859 0.838496 0)
(3.37358 0.886759 0)
(3.36057 0.934842 0)
(3.34688 0.982733 0)
(3.33251 1.03043 0)
(3.31746 1.07791 0)
(3.30172 1.12517 0)
(3.28532 1.1722 0)
(3.26825 1.21899 0)
(3.25051 1.26554 0)
(3.23211 1.31182 0)
(3.21304 1.35784 0)
(3.19333 1.40359 0)
(3.17296 1.44904 0)
(3.15194 1.4942 0)
(3.13029 1.53906 0)
(3.10799 1.5836 0)
(3.08506 1.62782 0)
(3.0615 1.67171 0)
(3.03732 1.71525 0)
(3.01252 1.75845 0)
(2.9871 1.80129 0)
(2.96107 1.84376 0)
(2.93444 1.88585 0)
(2.90721 1.92756 0)
(2.87939 1.96888 0)
(2.85099 2.00979 0)
(2.822 2.0503 0)
(2.79243 2.09039 0)
(2.7623 2.13005 0)
(2.7316 2.16928 0)
(2.70034 2.20806 0)
(2.66854 2.24639 0)
(2.63619 2.28427 0)
(2.6033 2.32168 0)
(2.56988 2.35862 0)
(2.53594 2.39507 0)
(2.50148 2.43104 0)
(2.46651 2.46651 0)
(2.43104 2.50148 0)
(2.39507 2.53594 0)
(2.35862 2.56988 0)
(2.32168 2.6033 0)
(2.28427 2.63619 0)
(2.24639 2.66854 0)
(2.20806 2.70034 0)
(2.16928 2.7316 0)
(2.13005 2.7623 0)
(2.09039 2.79243 0)
(2.0503 2.822 0)
(2.00979 2.85099 0)
(1.96888 2.87939 0)
(1.92756 2.90721 0)
(1.88585 2.93444 0)
(1.84376 2.96107 0)
(1.80129 2.9871 0)
(1.75845 3.01252 0)
(1.71525 3.03732 0)
(1.67171 3.0615 0)
(1.62782 3.08506 0)
(1.5836 3.10799 0)
(1.53906 3.13029 0)
(1.4942 3.15194 0)
(1.44904 3.17296 0)
(1.40359 3.19333 0)
(1.35784 3.21304 0)
(1.31182 3.23211 0)
(1.26554 3.25051 0)
(1.21899 3.26825 0)
(1.1722 3.28532 0)
(1.12517 3.30172 0)
(1.07791 3.31746 0)
(1.03043 3.33251 0)
(0.982733 3.34688 0)
(0.934842 3.36057 0)
(0.886759 3.37358 0)
(0.838496 3.3859 0)
(0.790061 3.39753 0)
(0.741466 3.40846 0)
(0.692719 3.4187 0)
(0.643831 3.42825 0)
(0.594812 3.43709 0)
(0.545671 3.44523 0)
(0.49642 3.45267 0)
(0.447067 3.45941 0)
(0.397622 3.46544 0)
(0.348097 3.47077 0)
(0.298501 3.47538 0)
(0.248844 3.47929 0)
(0.199136 3.48249 0)
(0.149388 3.48498 0)
(0.0996086 3.48676 0)
(0.0498094 3.48782 0)
(3.46858 0.0495345 0)
(3.46751 0.0990589 0)
(3.46575 0.148563 0)
(3.46327 0.198037 0)
(3.46009 0.247471 0)
(3.4562 0.296854 0)
(3.45161 0.346176 0)
(3.44632 0.395428 0)
(3.44032 0.444599 0)
(3.43362 0.49368 0)
(3.42622 0.54266 0)
(3.41812 0.591529 0)
(3.40933 0.640278 0)
(3.39984 0.688896 0)
(3.38965 0.737374 0)
(3.37878 0.785701 0)
(3.36721 0.833868 0)
(3.35496 0.881866 0)
(3.34203 0.929683 0)
(3.32841 0.97731 0)
(3.31412 1.02474 0)
(3.29915 1.07196 0)
(3.2835 1.11896 0)
(3.26719 1.16573 0)
(3.25021 1.21227 0)
(3.23257 1.25855 0)
(3.21427 1.30459 0)
(3.19531 1.35035 0)
(3.17571 1.39584 0)
(3.15545 1.44105 0)
(3.13455 1.48596 0)
(3.11301 1.53056 0)
(3.09084 1.57486 0)
(3.06804 1.61884 0)
(3.04461 1.66248 0)
(3.02056 1.70579 0)
(2.99589 1.74874 0)
(2.97061 1.79135 0)
(2.94473 1.83358 0)
(2.91825 1.87544 0)
(2.89117 1.91692 0)
(2.8635 1.95801 0)
(2.83525 1.9987 0)
(2.80642 2.03899 0)
(2.77702 2.07885 0)
(2.74705 2.11829 0)
(2.71652 2.15731 0)
(2.68544 2.19588 0)
(2.65381 2.234 0)
(2.62164 2.27167 0)
(2.58894 2.30887 0)
(2.5557 2.3456 0)
(2.52195 2.38186 0)
(2.48768 2.41763 0)
(2.4529 2.4529 0)
(2.41763 2.48768 0)
(2.38186 2.52195 0)
(2.3456 2.5557 0)
(2.30887 2.58894 0)
(2.27167 2.62164 0)
(2.234 2.65381 0)
(2.19588 2.68544 0)
(2.15731 2.71652 0)
(2.11829 2.74705 0)
(2.07885 2.77702 0)
(2.03899 2.80642 0)
(1.9987 2.83525 0)
(1.95801 2.8635 0)
(1.91692 2.89117 0)
(1.87544 2.91825 0)
(1.83358 2.94473 0)
(1.79135 2.97061 0)
(1.74874 2.99589 0)
(1.70579 3.02056 0)
(1.66248 3.04461 0)
(1.61884 3.06804 0)
(1.57486 3.09084 0)
(1.53056 3.11301 0)
(1.48596 3.13455 0)
(1.44105 3.15545 0)
(1.39584 3.17571 0)
(1.35035 3.19531 0)
(1.30459 3.21427 0)
(1.25855 3.23257 0)
(1.21227 3.25021 0)
(1.16573 3.26719 0)
(1.11896 3.2835 0)
(1.07196 3.29915 0)
(1.02474 3.31412 0)
(0.97731 3.32841 0)
(0.929683 3.34203 0)
(0.881866 3.35496 0)
(0.833868 3.36721 0)
(0.785701 3.37878 0)
(0.737374 3.38965 0)
(0.688896 3.39984 0)
(0.640278 3.40933 0)
(0.591529 3.41812 0)
(0.54266 3.42622 0)
(0.49368 3.43362 0)
(0.444599 3.44032 0)
(0.395428 3.44632 0)
(0.346176 3.45161 0)
(0.296854 3.4562 0)
(0.247471 3.46009 0)
(0.198037 3.46327 0)
(0.148563 3.46575 0)
(0.0990589 3.46751 0)
(0.0495345 3.46858 0)
(3.44982 0.0492666 0)
(3.44876 0.0985232 0)
(3.447 0.14776 0)
(3.44454 0.196966 0)
(3.44138 0.246132 0)
(3.43751 0.295248 0)
(3.43294 0.344304 0)
(3.42768 0.393289 0)
(3.42171 0.442195 0)
(3.41505 0.49101 0)
(3.40769 0.539725 0)
(3.39964 0.58833 0)
(3.39089 0.636815 0)
(3.38145 0.68517 0)
(3.37132 0.733386 0)
(3.3605 0.781452 0)
(3.349 0.829358 0)
(3.33682 0.877096 0)
(3.32395 0.924654 0)
(3.31041 0.972024 0)
(3.29619 1.0192 0)
(3.2813 1.06616 0)
(3.26575 1.11291 0)
(3.24952 1.15943 0)
(3.23263 1.20571 0)
(3.21509 1.25175 0)
(3.19688 1.29753 0)
(3.17803 1.34305 0)
(3.15853 1.38829 0)
(3.13838 1.43325 0)
(3.1176 1.47792 0)
(3.09617 1.52229 0)
(3.07412 1.56634 0)
(3.05144 1.61008 0)
(3.02814 1.65349 0)
(3.00422 1.69656 0)
(2.97969 1.73929 0)
(2.95455 1.78166 0)
(2.92881 1.82367 0)
(2.90247 1.8653 0)
(2.87553 1.90656 0)
(2.84802 1.94742 0)
(2.81992 1.98789 0)
(2.79124 2.02796 0)
(2.762 2.06761 0)
(2.7322 2.10684 0)
(2.70183 2.14564 0)
(2.67092 2.184 0)
(2.63946 2.22192 0)
(2.60746 2.25938 0)
(2.57493 2.29638 0)
(2.54188 2.33292 0)
(2.50831 2.36898 0)
(2.47422 2.40455 0)
(2.43964 2.43964 0)
(2.40455 2.47422 0)
(2.36898 2.50831 0)
(2.33292 2.54188 0)
(2.29638 2.57493 0)
(2.25938 2.60746 0)
(2.22192 2.63946 0)
(2.184 2.67092 0)
(2.14564 2.70183 0)
(2.10684 2.7322 0)
(2.06761 2.762 0)
(2.02796 2.79124 0)
(1.98789 2.81992 0)
(1.94742 2.84802 0)
(1.90656 2.87553 0)
(1.8653 2.90247 0)
(1.82367 2.92881 0)
(1.78166 2.95455 0)
(1.73929 2.97969 0)
(1.69656 3.00422 0)
(1.65349 3.02814 0)
(1.61008 3.05144 0)
(1.56634 3.07412 0)
(1.52229 3.09617 0)
(1.47792 3.1176 0)
(1.43325 3.13838 0)
(1.38829 3.15853 0)
(1.34305 3.17803 0)
(1.29753 3.19688 0)
(1.25175 3.21509 0)
(1.20571 3.23263 0)
(1.15943 3.24952 0)
(1.11291 3.26575 0)
(1.06616 3.2813 0)
(1.0192 3.29619 0)
(0.972024 3.31041 0)
(0.924654 3.32395 0)
(0.877096 3.33682 0)
(0.829358 3.349 0)
(0.781452 3.3605 0)
(0.733386 3.37132 0)
(0.68517 3.38145 0)
(0.636815 3.39089 0)
(0.58833 3.39964 0)
(0.539725 3.40769 0)
(0.49101 3.41505 0)
(0.442195 3.42171 0)
(0.393289 3.42768 0)
(0.344304 3.43294 0)
(0.295248 3.43751 0)
(0.246132 3.44138 0)
(0.196966 3.44454 0)
(0.14776 3.447 0)
(0.0985232 3.44876 0)
(0.0492666 3.44982 0)
(3.43138 0.0490033 0)
(3.43033 0.0979965 0)
(3.42858 0.14697 0)
(3.42613 0.195913 0)
(3.42298 0.244817 0)
(3.41914 0.29367 0)
(3.4146 0.342464 0)
(3.40936 0.391187 0)
(3.40342 0.439831 0)
(3.3968 0.488385 0)
(3.38948 0.53684 0)
(3.38146 0.585185 0)
(3.37276 0.633411 0)
(3.36337 0.681508 0)
(3.3533 0.729466 0)
(3.34254 0.777275 0)
(3.3311 0.824925 0)
(3.31898 0.872408 0)
(3.30619 0.919712 0)
(3.29272 0.966829 0)
(3.27858 1.01375 0)
(3.26377 1.06046 0)
(3.24829 1.10696 0)
(3.23215 1.15323 0)
(3.21535 1.19927 0)
(3.1979 1.24506 0)
(3.1798 1.29059 0)
(3.16104 1.33587 0)
(3.14165 1.38087 0)
(3.12161 1.42559 0)
(3.10093 1.47002 0)
(3.07963 1.51415 0)
(3.05769 1.55797 0)
(3.03513 1.60147 0)
(3.01195 1.64465 0)
(2.98816 1.68749 0)
(2.96376 1.72999 0)
(2.93876 1.77213 0)
(2.91315 1.81392 0)
(2.88695 1.85533 0)
(2.86016 1.89637 0)
(2.83279 1.93701 0)
(2.80484 1.97727 0)
(2.77632 2.01712 0)
(2.74724 2.05656 0)
(2.71759 2.09558 0)
(2.68739 2.13417 0)
(2.65664 2.17233 0)
(2.62535 2.21004 0)
(2.59353 2.2473 0)
(2.56117 2.28411 0)
(2.52829 2.32045 0)
(2.4949 2.35631 0)
(2.461 2.3917 0)
(2.4266 2.4266 0)
(2.3917 2.461 0)
(2.35631 2.4949 0)
(2.32045 2.52829 0)
(2.28411 2.56117 0)
(2.2473 2.59353 0)
(2.21004 2.62535 0)
(2.17233 2.65664 0)
(2.13417 2.68739 0)
(2.09558 2.71759 0)
(2.05656 2.74724 0)
(2.01712 2.77632 0)
(1.97727 2.80484 0)
(1.93701 2.83279 0)
(1.89637 2.86016 0)
(1.85533 2.88695 0)
(1.81392 2.91315 0)
(1.77213 2.93875 0)
(1.72999 2.96376 0)
(1.68749 2.98816 0)
(1.64465 3.01195 0)
(1.60147 3.03513 0)
(1.55797 3.05769 0)
(1.51415 3.07963 0)
(1.47002 3.10093 0)
(1.42559 3.12161 0)
(1.38087 3.14165 0)
(1.33587 3.16104 0)
(1.29059 3.1798 0)
(1.24506 3.1979 0)
(1.19927 3.21535 0)
(1.15323 3.23215 0)
(1.10696 3.24829 0)
(1.06046 3.26377 0)
(1.01375 3.27858 0)
(0.966829 3.29272 0)
(0.919712 3.30619 0)
(0.872408 3.31898 0)
(0.824925 3.3311 0)
(0.777275 3.34254 0)
(0.729466 3.3533 0)
(0.681508 3.36337 0)
(0.633411 3.37276 0)
(0.585185 3.38146 0)
(0.53684 3.38948 0)
(0.488385 3.3968 0)
(0.439831 3.40342 0)
(0.391187 3.40936 0)
(0.342464 3.4146 0)
(0.29367 3.41914 0)
(0.244817 3.42298 0)
(0.195913 3.42613 0)
(0.14697 3.42858 0)
(0.0979965 3.43033 0)
(0.0490033 3.43138 0)
(3.41334 0.0487457 0)
(3.4123 0.0974815 0)
(3.41056 0.146197 0)
(3.40812 0.194884 0)
(3.40499 0.24353 0)
(3.40117 0.292127 0)
(3.39665 0.340664 0)
(3.39144 0.389131 0)
(3.38554 0.43752 0)
(3.37894 0.485819 0)
(3.37166 0.534019 0)
(3.36369 0.58211 0)
(3.35504 0.630083 0)
(3.3457 0.677927 0)
(3.33568 0.725632 0)
(3.32498 0.77319 0)
(3.3136 0.82059 0)
(3.30154 0.867823 0)
(3.28881 0.914879 0)
(3.27541 0.961748 0)
(3.26135 1.00842 0)
(3.24661 1.05489 0)
(3.23122 1.10114 0)
(3.21517 1.14717 0)
(3.19846 1.19296 0)
(3.1811 1.23851 0)
(3.16309 1.28381 0)
(3.14443 1.32885 0)
(3.12514 1.37361 0)
(3.1052 1.4181 0)
(3.08464 1.46229 0)
(3.06344 1.50619 0)
(3.04162 1.54978 0)
(3.01918 1.59306 0)
(2.99613 1.63601 0)
(2.97246 1.67862 0)
(2.94819 1.7209 0)
(2.92331 1.76282 0)
(2.89784 1.80439 0)
(2.87178 1.84558 0)
(2.84513 1.8864 0)
(2.81791 1.92683 0)
(2.7901 1.96688 0)
(2.76173 2.00652 0)
(2.7328 2.04575 0)
(2.70331 2.08456 0)
(2.67327 2.12295 0)
(2.64268 2.16091 0)
(2.61155 2.19842 0)
(2.5799 2.23549 0)
(2.54771 2.2721 0)
(2.51501 2.30825 0)
(2.48179 2.34393 0)
(2.44807 2.37913 0)
(2.41384 2.41384 0)
(2.37913 2.44807 0)
(2.34393 2.48179 0)
(2.30825 2.51501 0)
(2.2721 2.54771 0)
(2.23549 2.5799 0)
(2.19842 2.61155 0)
(2.16091 2.64268 0)
(2.12295 2.67327 0)
(2.08456 2.70331 0)
(2.04575 2.7328 0)
(2.00652 2.76173 0)
(1.96688 2.7901 0)
(1.92683 2.81791 0)
(1.8864 2.84513 0)
(1.84558 2.87178 0)
(1.80439 2.89784 0)
(1.76282 2.92331 0)
(1.7209 2.94819 0)
(1.67862 2.97246 0)
(1.63601 2.99613 0)
(1.59306 3.01918 0)
(1.54978 3.04162 0)
(1.50619 3.06344 0)
(1.46229 3.08464 0)
(1.4181 3.1052 0)
(1.37361 3.12514 0)
(1.32885 3.14443 0)
(1.28381 3.16309 0)
(1.23851 3.1811 0)
(1.19296 3.19846 0)
(1.14717 3.21517 0)
(1.10114 3.23122 0)
(1.05489 3.24661 0)
(1.00842 3.26135 0)
(0.961748 3.27541 0)
(0.914879 3.28881 0)
(0.867823 3.30154 0)
(0.82059 3.3136 0)
(0.77319 3.32498 0)
(0.725632 3.33568 0)
(0.677927 3.3457 0)
(0.630083 3.35504 0)
(0.58211 3.36369 0)
(0.534019 3.37166 0)
(0.485819 3.37894 0)
(0.43752 3.38554 0)
(0.389131 3.39144 0)
(0.340664 3.39665 0)
(0.292127 3.40117 0)
(0.24353 3.40499 0)
(0.194884 3.40812 0)
(0.146197 3.41056 0)
(0.0974815 3.4123 0)
(0.0487457 3.41334 0)
(3.39566 0.0484932 0)
(3.39462 0.0969765 0)
(3.39289 0.14544 0)
(3.39047 0.193874 0)
(3.38735 0.242268 0)
(3.38355 0.290613 0)
(3.37905 0.338899 0)
(3.37387 0.387115 0)
(3.368 0.435253 0)
(3.36144 0.483302 0)
(3.35419 0.531252 0)
(3.34627 0.579094 0)
(3.33766 0.626818 0)
(3.32836 0.674414 0)
(3.3184 0.721873 0)
(3.30775 0.769184 0)
(3.29643 0.816339 0)
(3.28444 0.863327 0)
(3.27177 0.910139 0)
(3.25844 0.956765 0)
(3.24445 1.0032 0)
(3.22979 1.04942 0)
(3.21448 1.09544 0)
(3.19851 1.14123 0)
(3.18189 1.18678 0)
(3.16461 1.2321 0)
(3.1467 1.27716 0)
(3.12814 1.32196 0)
(3.10894 1.3665 0)
(3.08911 1.41075 0)
(3.06865 1.45472 0)
(3.04757 1.49839 0)
(3.02586 1.54175 0)
(3.00354 1.5848 0)
(2.9806 1.62753 0)
(2.95706 1.66993 0)
(2.93291 1.71198 0)
(2.90817 1.75369 0)
(2.88283 1.79504 0)
(2.8569 1.83602 0)
(2.83039 1.87663 0)
(2.80331 1.91685 0)
(2.77565 1.95669 0)
(2.74743 1.99612 0)
(2.71864 2.03515 0)
(2.6893 2.07376 0)
(2.65942 2.11195 0)
(2.62899 2.14971 0)
(2.59802 2.18703 0)
(2.56653 2.22391 0)
(2.53451 2.26033 0)
(2.50198 2.29629 0)
(2.46893 2.33179 0)
(2.43538 2.3668 0)
(2.40134 2.40134 0)
(2.3668 2.43538 0)
(2.33179 2.46893 0)
(2.29629 2.50198 0)
(2.26033 2.53451 0)
(2.22391 2.56653 0)
(2.18703 2.59802 0)
(2.14971 2.62899 0)
(2.11195 2.65942 0)
(2.07376 2.6893 0)
(2.03515 2.71864 0)
(1.99612 2.74743 0)
(1.95669 2.77565 0)
(1.91685 2.80331 0)
(1.87663 2.83039 0)
(1.83602 2.8569 0)
(1.79504 2.88283 0)
(1.75369 2.90817 0)
(1.71198 2.93291 0)
(1.66993 2.95706 0)
(1.62753 2.9806 0)
(1.5848 3.00354 0)
(1.54175 3.02586 0)
(1.49839 3.04757 0)
(1.45472 3.06865 0)
(1.41075 3.08911 0)
(1.3665 3.10894 0)
(1.32196 3.12814 0)
(1.27716 3.1467 0)
(1.2321 3.16461 0)
(1.18678 3.18189 0)
(1.14123 3.19851 0)
(1.09544 3.21448 0)
(1.04942 3.22979 0)
(1.0032 3.24445 0)
(0.956765 3.25844 0)
(0.910139 3.27177 0)
(0.863327 3.28444 0)
(0.816339 3.29643 0)
(0.769184 3.30775 0)
(0.721873 3.3184 0)
(0.674414 3.32836 0)
(0.626818 3.33766 0)
(0.579094 3.34627 0)
(0.531252 3.35419 0)
(0.483302 3.36144 0)
(0.435253 3.368 0)
(0.387115 3.37387 0)
(0.338899 3.37905 0)
(0.290613 3.38355 0)
(0.242268 3.38735 0)
(0.193874 3.39047 0)
(0.14544 3.39289 0)
(0.0969765 3.39462 0)
(0.0484932 3.39566 0)
(3.37835 0.0482459 0)
(3.37731 0.0964821 0)
(3.37559 0.144698 0)
(3.37318 0.192885 0)
(3.37008 0.241033 0)
(3.3663 0.289131 0)
(3.36182 0.337171 0)
(3.35667 0.385142 0)
(3.35083 0.433034 0)
(3.3443 0.480838 0)
(3.33709 0.528544 0)
(3.32921 0.576142 0)
(3.32064 0.623622 0)
(3.3114 0.670976 0)
(3.30148 0.718192 0)
(3.29088 0.765262 0)
(3.27962 0.812177 0)
(3.26769 0.858925 0)
(3.25509 0.905498 0)
(3.24183 0.951887 0)
(3.22791 0.998082 0)
(3.21333 1.04407 0)
(3.19809 1.08985 0)
(3.1822 1.13541 0)
(3.16566 1.18073 0)
(3.14848 1.22581 0)