/*--------------------------------*- C++ -*----------------------------------*\
| =========                 |                                                 |
| \\      /  F ield         | OpenFOAM: The Open Source CFD Toolbox           |
|  \\    /   O peration     | Version:  2312                                  |
|   \\  /    A nd           | Website:  www.openfoam.com                      |
|    \\/     M anipulation  |                                                 |
\*---------------------------------------------------------------------------*/
FoamFile
{
    version     2.0;
    format      ascii;
    arch        "LSB;label=32;scalar=64";
    class       volVectorField;
    location    "80";
    object      U;
}
// * * * * * * * * * * * * * * * * * * * * * * * * * * * * * * * * * * * * * //

dimensions      [0 1 -1 0 0 0 0];

internalField   nonuniform List<vector> 
12870
(
(0.087229 0.000622824 0)
(0.0872113 0.00186835 0)
(0.0871757 0.00311349 0)
(0.0871223 0.00435799 0)
(0.0870512 0.00560161 0)
(0.0869624 0.00684409 0)
(0.0868558 0.00808517 0)
(0.0867315 0.0093246 0)
(0.0865895 0.0105621 0)
(0.0864298 0.0117975 0)
(0.0862525 0.0130305 0)
(0.0860577 0.0142608 0)
(0.0858453 0.0154882 0)
(0.0856153 0.0167124 0)
(0.085368 0.0179333 0)
(0.0851032 0.0191505 0)
(0.0848211 0.0203637 0)
(0.0845216 0.0215729 0)
(0.084205 0.0227776 0)
(0.0838711 0.0239777 0)
(0.0835202 0.0251729 0)
(0.0831522 0.0263629 0)
(0.0827673 0.0275476 0)
(0.0823655 0.0287267 0)
(0.0819469 0.0298999 0)
(0.0815116 0.031067 0)
(0.0810596 0.0322278 0)
(0.0805912 0.033382 0)
(0.0801063 0.0345294 0)
(0.0796051 0.0356697 0)
(0.0790876 0.0368028 0)
(0.078554 0.0379284 0)
(0.0780044 0.0390462 0)
(0.0774389 0.0401561 0)
(0.0768576 0.0412578 0)
(0.0762606 0.0423511 0)
(0.0756481 0.0434357 0)
(0.0750201 0.0445115 0)
(0.0743769 0.0455782 0)
(0.0737185 0.0466356 0)
(0.073045 0.0476835 0)
(0.0723567 0.0487217 0)
(0.0716536 0.04975 0)
(0.0709359 0.0507681 0)
(0.0702037 0.0517758 0)
(0.0694572 0.052773 0)
(0.0686965 0.0537594 0)
(0.0679219 0.0547349 0)
(0.0671334 0.0556992 0)
(0.0663312 0.0566522 0)
(0.0655154 0.0575936 0)
(0.0646864 0.0585232 0)
(0.0638441 0.0594409 0)
(0.0629888 0.0603465 0)
(0.0621207 0.0612398 0)
(0.0612398 0.0621207 0)
(0.0603465 0.0629888 0)
(0.0594409 0.0638441 0)
(0.0585232 0.0646864 0)
(0.0575936 0.0655154 0)
(0.0566522 0.0663312 0)
(0.0556992 0.0671334 0)
(0.0547349 0.0679219 0)
(0.0537594 0.0686965 0)
(0.052773 0.0694572 0)
(0.0517758 0.0702037 0)
(0.0507681 0.0709359 0)
(0.04975 0.0716536 0)
(0.0487217 0.0723567 0)
(0.0476835 0.073045 0)
(0.0466356 0.0737185 0)
(0.0455782 0.0743769 0)
(0.0445115 0.0750201 0)
(0.0434357 0.0756481 0)
(0.0423511 0.0762606 0)
(0.0412578 0.0768576 0)
(0.0401561 0.0774389 0)
(0.0390462 0.0780044 0)
(0.0379284 0.078554 0)
(0.0368028 0.0790876 0)
(0.0356697 0.0796051 0)
(0.0345294 0.0801063 0)
(0.033382 0.0805912 0)
(0.0322278 0.0810596 0)
(0.031067 0.0815116 0)
(0.0298999 0.0819469 0)
(0.0287267 0.0823655 0)
(0.0275476 0.0827673 0)
(0.0263629 0.0831522 0)
(0.0251729 0.0835202 0)
(0.0239777 0.0838711 0)
(0.0227776 0.084205 0)
(0.0215729 0.0845216 0)
(0.0203637 0.0848211 0)
(0.0191505 0.0851032 0)
(0.0179333 0.085368 0)
(0.0167124 0.0856153 0)
(0.0154882 0.0858453 0)
(0.0142608 0.0860577 0)
(0.0130305 0.0862525 0)
(0.0117975 0.0864298 0)
(0.0105621 0.0865895 0)
(0.0093246 0.0867315 0)
(0.00808517 0.0868558 0)
(0.00684409 0.0869624 0)
(0.00560161 0.0870512 0)
(0.00435799 0.0871223 0)
(0.00311349 0.0871757 0)
(0.00186835 0.0872113 0)
(0.000622824 0.087229 0)
(0.0869604 0.000620906 0)
(0.0869426 0.00186259 0)
(0.0869072 0.0031039 0)
(0.086854 0.00434457 0)
(0.0867831 0.00558436 0)
(0.0866945 0.00682301 0)
(0.0865882 0.00806026 0)
(0.0864643 0.00929588 0)
(0.0863228 0.0105296 0)
(0.0861636 0.0117612 0)
(0.0859869 0.0129903 0)
(0.0857926 0.0142169 0)
(0.0855808 0.0154405 0)
(0.0853516 0.016661 0)
(0.085105 0.017878 0)
(0.0848411 0.0190915 0)
(0.0845598 0.020301 0)
(0.0842613 0.0215064 0)
(0.0839456 0.0227074 0)
(0.0836128 0.0239038 0)
(0.0832629 0.0250953 0)
(0.0828961 0.0262817 0)
(0.0825123 0.0274627 0)
(0.0821118 0.0286382 0)
(0.0816945 0.0298078 0)
(0.0812605 0.0309713 0)
(0.08081 0.0321285 0)
(0.0803429 0.0332791 0)
(0.0798595 0.034423 0)
(0.0793599 0.0355598 0)
(0.078844 0.0366894 0)
(0.0783121 0.0378115 0)
(0.0777641 0.0389259 0)
(0.0772004 0.0400324 0)
(0.0766209 0.0411307 0)
(0.0760257 0.0422206 0)
(0.0754151 0.0433019 0)
(0.0747891 0.0443744 0)
(0.0741478 0.0454378 0)
(0.0734914 0.046492 0)
(0.07282 0.0475367 0)
(0.0721338 0.0485716 0)
(0.0714329 0.0495967 0)
(0.0707174 0.0506117 0)
(0.0699875 0.0516163 0)
(0.0692433 0.0526105 0)
(0.068485 0.0535939 0)
(0.0677127 0.0545663 0)
(0.0669266 0.0555277 0)
(0.0661269 0.0564777 0)
(0.0653137 0.0574162 0)
(0.0644871 0.058343 0)
(0.0636474 0.0592579 0)
(0.0627948 0.0601607 0)
(0.0619293 0.0610512 0)
(0.0610512 0.0619293 0)
(0.0601607 0.0627948 0)
(0.0592579 0.0636474 0)
(0.058343 0.0644871 0)
(0.0574162 0.0653137 0)
(0.0564777 0.0661269 0)
(0.0555277 0.0669266 0)
(0.0545663 0.0677127 0)
(0.0535939 0.068485 0)
(0.0526105 0.0692433 0)
(0.0516163 0.0699875 0)
(0.0506117 0.0707174 0)
(0.0495967 0.0714329 0)
(0.0485716 0.0721338 0)
(0.0475367 0.07282 0)
(0.046492 0.0734914 0)
(0.0454378 0.0741478 0)
(0.0443744 0.0747891 0)
(0.0433019 0.0754151 0)
(0.0422206 0.0760257 0)
(0.0411307 0.0766209 0)
(0.0400324 0.0772004 0)
(0.0389259 0.0777641 0)
(0.0378115 0.0783121 0)
(0.0366894 0.078844 0)
(0.0355598 0.0793599 0)
(0.034423 0.0798595 0)
(0.0332791 0.0803429 0)
(0.0321285 0.08081 0)
(0.0309713 0.0812605 0)
(0.0298078 0.0816945 0)
(0.0286382 0.0821118 0)
(0.0274627 0.0825123 0)
(0.0262817 0.0828961 0)
(0.0250953 0.0832629 0)
(0.0239038 0.0836128 0)
(0.0227074 0.0839456 0)
(0.0215064 0.0842613 0)
(0.020301 0.0845598 0)
(0.0190915 0.0848411 0)
(0.017878 0.085105 0)
(0.016661 0.0853516 0)
(0.0154405 0.0855808 0)
(0.0142169 0.0857926 0)
(0.0129903 0.0859869 0)
(0.0117612 0.0861636 0)
(0.0105296 0.0863228 0)
(0.00929588 0.0864643 0)
(0.00806026 0.0865882 0)
(0.00682301 0.0866945 0)
(0.00558436 0.0867831 0)
(0.00434457 0.086854 0)
(0.0031039 0.0869072 0)
(0.00186259 0.0869426 0)
(0.000620906 0.0869604 0)
(0.0866948 0.00061901 0)
(0.0866771 0.0018569 0)
(0.0866418 0.00309442 0)
(0.0865888 0.0043313 0)
(0.0865181 0.0055673 0)
(0.0864298 0.00680217 0)
(0.0863238 0.00803565 0)
(0.0862003 0.00926749 0)
(0.0860591 0.0104974 0)
(0.0859005 0.0117252 0)
(0.0857243 0.0129507 0)
(0.0855306 0.0141734 0)
(0.0853195 0.0153933 0)
(0.085091 0.0166101 0)
(0.0848451 0.0178234 0)
(0.084582 0.0190332 0)
(0.0843016 0.020239 0)
(0.084004 0.0214407 0)
(0.0836892 0.0226381 0)
(0.0833574 0.0238308 0)
(0.0830087 0.0250187 0)
(0.0826429 0.0262015 0)
(0.0822604 0.0273789 0)
(0.081861 0.0285507 0)
(0.081445 0.0297167 0)
(0.0810123 0.0308767 0)
(0.0805632 0.0320304 0)
(0.0800976 0.0331775 0)
(0.0796157 0.0343179 0)
(0.0791175 0.0354513 0)
(0.0786032 0.0365774 0)
(0.0780729 0.0376961 0)
(0.0775267 0.0388071 0)
(0.0769646 0.0399102 0)
(0.0763869 0.0410051 0)
(0.0757935 0.0420917 0)
(0.0751848 0.0431697 0)
(0.0745607 0.0442389 0)
(0.0739214 0.0452991 0)
(0.073267 0.04635 0)
(0.0725976 0.0473915 0)
(0.0719135 0.0484233 0)
(0.0712147 0.0494453 0)
(0.0705014 0.0504571 0)
(0.0697737 0.0514587 0)
(0.0690318 0.0524498 0)
(0.0682758 0.0534302 0)
(0.0675059 0.0543997 0)
(0.0667222 0.0553581 0)
(0.0659249 0.0563052 0)
(0.0651142 0.0572408 0)
(0.0642902 0.0581648 0)
(0.0634531 0.0590769 0)
(0.062603 0.059977 0)
(0.0617402 0.0608648 0)
(0.0608648 0.0617402 0)
(0.059977 0.062603 0)
(0.0590769 0.0634531 0)
(0.0581648 0.0642902 0)
(0.0572408 0.0651142 0)
(0.0563052 0.0659249 0)
(0.0553581 0.0667222 0)
(0.0543997 0.0675059 0)
(0.0534302 0.0682758 0)
(0.0524498 0.0690318 0)
(0.0514587 0.0697737 0)
(0.0504571 0.0705014 0)
(0.0494453 0.0712147 0)
(0.0484233 0.0719135 0)
(0.0473915 0.0725976 0)
(0.04635 0.073267 0)
(0.0452991 0.0739214 0)
(0.0442389 0.0745607 0)
(0.0431697 0.0751848 0)
(0.0420917 0.0757935 0)
(0.0410051 0.0763869 0)
(0.0399102 0.0769646 0)
(0.0388071 0.0775267 0)
(0.0376961 0.0780729 0)
(0.0365774 0.0786032 0)
(0.0354513 0.0791175 0)
(0.0343179 0.0796157 0)
(0.0331775 0.0800976 0)
(0.0320304 0.0805632 0)
(0.0308767 0.0810123 0)
(0.0297167 0.081445 0)
(0.0285507 0.081861 0)
(0.0273789 0.0822604 0)
(0.0262015 0.0826429 0)
(0.0250187 0.0830087 0)
(0.0238308 0.0833574 0)
(0.0226381 0.0836892 0)
(0.0214407 0.084004 0)
(0.020239 0.0843016 0)
(0.0190332 0.084582 0)
(0.0178234 0.0848451 0)
(0.0166101 0.085091 0)
(0.0153933 0.0853195 0)
(0.0141734 0.0855306 0)
(0.0129507 0.0857243 0)
(0.0117252 0.0859005 0)
(0.0104974 0.0860591 0)
(0.00926749 0.0862003 0)
(0.00803565 0.0863238 0)
(0.00680217 0.0864298 0)
(0.0055673 0.0865181 0)
(0.0043313 0.0865888 0)
(0.00309442 0.0866418 0)
(0.0018569 0.0866771 0)
(0.00061901 0.0866948 0)
(0.08643 0.000617119 0)
(0.0864124 0.00185123 0)
(0.0863772 0.00308497 0)
(0.0863243 0.00431807 0)
(0.0862538 0.0055503 0)
(0.0861658 0.00678139 0)
(0.0860602 0.00801111 0)
(0.085937 0.00923918 0)
(0.0857963 0.0104654 0)
(0.0856381 0.0116894 0)
(0.0854625 0.0129111 0)
(0.0852694 0.0141302 0)
(0.0850589 0.0153463 0)
(0.0848311 0.0165594 0)
(0.084586 0.017769 0)
(0.0843236 0.018975 0)
(0.0840441 0.0201772 0)
(0.0837474 0.0213753 0)
(0.0834336 0.0225689 0)
(0.0831029 0.023758 0)
(0.0827551 0.0249423 0)
(0.0823905 0.0261214 0)
(0.0820091 0.0272953 0)
(0.081611 0.0284635 0)
(0.0811962 0.029626 0)
(0.0807649 0.0307824 0)
(0.0803171 0.0319325 0)
(0.079853 0.0330762 0)
(0.0793725 0.0342131 0)
(0.0788759 0.035343 0)
(0.0783632 0.0364657 0)
(0.0778345 0.0375809 0)
(0.0772899 0.0386886 0)
(0.0767295 0.0397883 0)
(0.0761536 0.0408799 0)
(0.0755621 0.0419631 0)
(0.0749551 0.0430378 0)
(0.0743329 0.0441038 0)
(0.0736956 0.0451607 0)
(0.0730432 0.0462084 0)
(0.0723759 0.0472468 0)
(0.0716939 0.0482754 0)
(0.0709972 0.0492943 0)
(0.0702861 0.050303 0)
(0.0695606 0.0513016 0)
(0.068821 0.0522896 0)
(0.0680673 0.053267 0)
(0.0672997 0.0542335 0)
(0.0665184 0.055189 0)
(0.0657236 0.0561332 0)
(0.0649153 0.057066 0)
(0.0640938 0.0579872 0)
(0.0632593 0.0588965 0)
(0.0624118 0.0597938 0)
(0.0615516 0.0606789 0)
(0.0606789 0.0615516 0)
(0.0597938 0.0624118 0)
(0.0588965 0.0632593 0)
(0.0579872 0.0640938 0)
(0.057066 0.0649153 0)
(0.0561332 0.0657236 0)
(0.055189 0.0665184 0)
(0.0542335 0.0672997 0)
(0.053267 0.0680673 0)
(0.0522896 0.068821 0)
(0.0513016 0.0695606 0)
(0.050303 0.0702861 0)
(0.0492943 0.0709972 0)
(0.0482754 0.0716939 0)
(0.0472468 0.0723759 0)
(0.0462084 0.0730432 0)
(0.0451607 0.0736956 0)
(0.0441038 0.0743329 0)
(0.0430378 0.0749551 0)
(0.0419631 0.0755621 0)
(0.0408799 0.0761536 0)
(0.0397883 0.0767295 0)
(0.0386886 0.0772899 0)
(0.0375809 0.0778345 0)
(0.0364657 0.0783632 0)
(0.035343 0.0788759 0)
(0.0342131 0.0793725 0)
(0.0330762 0.079853 0)
(0.0319325 0.0803171 0)
(0.0307824 0.0807649 0)
(0.029626 0.0811962 0)
(0.0284635 0.081611 0)
(0.0272953 0.0820091 0)
(0.0261214 0.0823905 0)
(0.0249423 0.0827551 0)
(0.023758 0.0831029 0)
(0.0225689 0.0834336 0)
(0.0213753 0.0837474 0)
(0.0201772 0.0840441 0)
(0.018975 0.0843236 0)
(0.017769 0.084586 0)
(0.0165594 0.0848311 0)
(0.0153463 0.0850589 0)
(0.0141302 0.0852694 0)
(0.0129111 0.0854625 0)
(0.0116894 0.0856381 0)
(0.0104654 0.0857963 0)
(0.00923918 0.085937 0)
(0.00801111 0.0860602 0)
(0.00678139 0.0861658 0)
(0.0055503 0.0862538 0)
(0.00431807 0.0863243 0)
(0.00308497 0.0863772 0)
(0.00185123 0.0864124 0)
(0.000617119 0.08643 0)
(0.0861679 0.000615248 0)
(0.0861503 0.00184562 0)
(0.0861152 0.00307561 0)
(0.0860625 0.00430498 0)
(0.0859922 0.00553347 0)
(0.0859044 0.00676083 0)
(0.0857991 0.00798681 0)
(0.0856763 0.00921116 0)
(0.0855361 0.0104336 0)
(0.0853784 0.011654 0)
(0.0852033 0.012872 0)
(0.0850108 0.0140873 0)
(0.0848009 0.0152998 0)
(0.0845738 0.0165091 0)
(0.0843295 0.0177151 0)
(0.0840679 0.0189175 0)
(0.0837892 0.020116 0)
(0.0834934 0.0213104 0)
(0.0831806 0.0225005 0)
(0.0828508 0.023686 0)
(0.0825041 0.0248666 0)
(0.0821406 0.0260422 0)
(0.0817604 0.0272125 0)
(0.0813635 0.0283772 0)
(0.08095 0.0295361 0)
(0.08052 0.030689 0)
(0.0800735 0.0318357 0)
(0.0796108 0.0329759 0)
(0.0791318 0.0341093 0)
(0.0786366 0.0352358 0)
(0.0781255 0.0363551 0)
(0.0775984 0.037467 0)
(0.0770555 0.0385712 0)
(0.0764968 0.0396676 0)
(0.0759226 0.0407559 0)
(0.0753329 0.0418359 0)
(0.0747278 0.0429073 0)
(0.0741075 0.04397 0)
(0.0734721 0.0450237 0)
(0.0728217 0.0460683 0)
(0.0721564 0.0471035 0)
(0.0714764 0.048129 0)
(0.0707819 0.0491447 0)
(0.0700729 0.0501505 0)
(0.0693496 0.051146 0)
(0.0686122 0.052131 0)
(0.0678608 0.0531054 0)
(0.0670956 0.0540691 0)
(0.0663167 0.0550216 0)
(0.0655242 0.055963 0)
(0.0647184 0.0568929 0)
(0.0638994 0.0578113 0)
(0.0630674 0.0587178 0)
(0.0622225 0.0596124 0)
(0.0613649 0.0604948 0)
(0.0604948 0.0613649 0)
(0.0596124 0.0622225 0)
(0.0587178 0.0630674 0)
(0.0578113 0.0638994 0)
(0.0568929 0.0647184 0)
(0.055963 0.0655242 0)
(0.0550216 0.0663167 0)
(0.0540691 0.0670956 0)
(0.0531054 0.0678608 0)
(0.052131 0.0686122 0)
(0.051146 0.0693496 0)
(0.0501505 0.0700729 0)
(0.0491447 0.0707819 0)
(0.048129 0.0714764 0)
(0.0471035 0.0721564 0)
(0.0460683 0.0728217 0)
(0.0450237 0.0734721 0)
(0.04397 0.0741075 0)
(0.0429073 0.0747278 0)
(0.0418359 0.0753329 0)
(0.0407559 0.0759226 0)
(0.0396676 0.0764968 0)
(0.0385712 0.0770555 0)
(0.037467 0.0775984 0)
(0.0363551 0.0781255 0)
(0.0352358 0.0786366 0)
(0.0341093 0.0791318 0)
(0.0329759 0.0796108 0)
(0.0318357 0.0800735 0)
(0.030689 0.08052 0)
(0.0295361 0.08095 0)
(0.0283772 0.0813635 0)
(0.0272125 0.0817604 0)
(0.0260422 0.0821406 0)
(0.0248666 0.0825041 0)
(0.023686 0.0828508 0)
(0.0225005 0.0831806 0)
(0.0213104 0.0834934 0)
(0.020116 0.0837892 0)
(0.0189175 0.0840679 0)
(0.0177151 0.0843295 0)
(0.0165091 0.0845738 0)
(0.0152998 0.0848009 0)
(0.0140873 0.0850108 0)
(0.012872 0.0852033 0)
(0.011654 0.0853784 0)
(0.0104336 0.0855361 0)
(0.00921116 0.0856763 0)
(0.00798681 0.0857991 0)
(0.00676083 0.0859044 0)
(0.00553347 0.0859922 0)
(0.00430498 0.0860625 0)
(0.00307561 0.0861152 0)
(0.00184562 0.0861503 0)
(0.000615248 0.0861679 0)
(0.0859073 0.000613387 0)
(0.0858897 0.00184004 0)
(0.0858547 0.00306631 0)
(0.0858022 0.00429196 0)
(0.0857321 0.00551673 0)
(0.0856446 0.00674038 0)
(0.0855396 0.00796265 0)
(0.0854172 0.0091833 0)
(0.0852774 0.0104021 0)
(0.0851201 0.0116187 0)
(0.0849456 0.012833 0)
(0.0847537 0.0140447 0)
(0.0845445 0.0152535 0)
(0.084318 0.0164592 0)
(0.0840744 0.0176615 0)
(0.0838136 0.0188603 0)
(0.0835358 0.0200552 0)
(0.0832409 0.021246 0)
(0.082929 0.0224324 0)
(0.0826002 0.0236143 0)
(0.0822546 0.0247914 0)
(0.0818922 0.0259634 0)
(0.0815131 0.0271302 0)
(0.0811174 0.0282914 0)
(0.0807051 0.0294468 0)
(0.0802764 0.0305962 0)
(0.0798313 0.0317394 0)
(0.07937 0.0328761 0)
(0.0788924 0.0340061 0)
(0.0783988 0.0351292 0)
(0.0778892 0.0362451 0)
(0.0773637 0.0373536 0)
(0.0768224 0.0384546 0)
(0.0762655 0.0395476 0)
(0.075693 0.0406326 0)
(0.075105 0.0417093 0)
(0.0745018 0.0427775 0)
(0.0738834 0.043837 0)
(0.0732499 0.0448876 0)
(0.0726014 0.045929 0)
(0.0719382 0.046961 0)
(0.0712603 0.0479834 0)
(0.0705678 0.0489961 0)
(0.069861 0.0499988 0)
(0.0691399 0.0509913 0)
(0.0684047 0.0519733 0)
(0.0676556 0.0529448 0)
(0.0668927 0.0539055 0)
(0.0661161 0.0548552 0)
(0.0653261 0.0557937 0)
(0.0645227 0.0567209 0)
(0.0637062 0.0576364 0)
(0.0628767 0.0585402 0)
(0.0620343 0.0594321 0)
(0.0611793 0.0603119 0)
(0.0603119 0.0611793 0)
(0.0594321 0.0620343 0)
(0.0585402 0.0628767 0)
(0.0576364 0.0637062 0)
(0.0567209 0.0645227 0)
(0.0557937 0.0653261 0)
(0.0548552 0.0661161 0)
(0.0539055 0.0668927 0)
(0.0529448 0.0676556 0)
(0.0519733 0.0684047 0)
(0.0509913 0.0691399 0)
(0.0499988 0.069861 0)
(0.0489961 0.0705678 0)
(0.0479834 0.0712603 0)
(0.046961 0.0719382 0)
(0.045929 0.0726014 0)
(0.0448876 0.0732499 0)
(0.043837 0.0738834 0)
(0.0427775 0.0745018 0)
(0.0417093 0.075105 0)
(0.0406326 0.075693 0)
(0.0395476 0.0762655 0)
(0.0384546 0.0768224 0)
(0.0373536 0.0773637 0)
(0.0362451 0.0778892 0)
(0.0351292 0.0783988 0)
(0.0340061 0.0788924 0)
(0.0328761 0.07937 0)
(0.0317394 0.0798313 0)
(0.0305962 0.0802764 0)
(0.0294468 0.0807051 0)
(0.0282914 0.0811174 0)
(0.0271302 0.0815131 0)
(0.0259634 0.0818922 0)
(0.0247914 0.0822546 0)
(0.0236143 0.0826002 0)
(0.0224324 0.082929 0)
(0.021246 0.0832409 0)
(0.0200552 0.0835358 0)
(0.0188603 0.0838136 0)
(0.0176615 0.0840744 0)
(0.0164592 0.084318 0)
(0.0152535 0.0845445 0)
(0.0140447 0.0847537 0)
(0.012833 0.0849456 0)
(0.0116187 0.0851201 0)
(0.0104021 0.0852774 0)
(0.0091833 0.0854172 0)
(0.00796265 0.0855396 0)
(0.00674038 0.0856446 0)
(0.00551673 0.0857321 0)
(0.00429196 0.0858022 0)
(0.00306631 0.0858547 0)
(0.00184004 0.0858897 0)
(0.000613387 0.0859073 0)
(0.0856491 0.000611543 0)
(0.0856316 0.00183451 0)
(0.0855967 0.00305709 0)
(0.0855443 0.00427906 0)
(0.0854745 0.00550015 0)
(0.0853872 0.00672012 0)
(0.0852826 0.00793872 0)
(0.0851605 0.0091557 0)
(0.0850211 0.0103708 0)
(0.0848643 0.0115838 0)
(0.0846903 0.0127945 0)
(0.0844989 0.0140025 0)
(0.0842904 0.0152077 0)
(0.0840646 0.0164097 0)
(0.0838217 0.0176085 0)
(0.0835617 0.0188036 0)
(0.0832847 0.0199949 0)
(0.0829907 0.0211821 0)
(0.0826798 0.022365 0)
(0.082352 0.0235434 0)
(0.0820074 0.0247169 0)
(0.0816461 0.0258854 0)
(0.0812681 0.0270486 0)
(0.0808736 0.0282063 0)
(0.0804626 0.0293583 0)
(0.0800352 0.0305043 0)
(0.0795914 0.031644 0)
(0.0791314 0.0327773 0)
(0.0786553 0.0339039 0)
(0.0781632 0.0350236 0)
(0.0776551 0.0361362 0)
(0.0771312 0.0372414 0)
(0.0765915 0.038339 0)
(0.0760362 0.0394288 0)
(0.0754655 0.0405105 0)
(0.0748793 0.041584 0)
(0.0742779 0.042649 0)
(0.0736613 0.0437053 0)
(0.0730297 0.0447527 0)
(0.0723832 0.0457909 0)
(0.071722 0.0468198 0)
(0.0710461 0.0478392 0)
(0.0703557 0.0488488 0)
(0.069651 0.0498485 0)
(0.0689321 0.050838 0)
(0.0681991 0.0518171 0)
(0.0674523 0.0527857 0)
(0.0666916 0.0537435 0)
(0.0659174 0.0546903 0)
(0.0651297 0.055626 0)
(0.0643288 0.0565504 0)
(0.0635147 0.0574632 0)
(0.0626877 0.0583643 0)
(0.0618479 0.0592535 0)
(0.0609955 0.0601306 0)
(0.0601306 0.0609955 0)
(0.0592535 0.0618479 0)
(0.0583643 0.0626877 0)
(0.0574632 0.0635147 0)
(0.0565504 0.0643288 0)
(0.055626 0.0651297 0)
(0.0546903 0.0659174 0)
(0.0537435 0.0666916 0)
(0.0527857 0.0674523 0)
(0.0518171 0.0681991 0)
(0.050838 0.0689321 0)
(0.0498485 0.069651 0)
(0.0488488 0.0703557 0)
(0.0478392 0.0710461 0)
(0.0468198 0.071722 0)
(0.0457909 0.0723832 0)
(0.0447527 0.0730297 0)
(0.0437053 0.0736613 0)
(0.042649 0.0742779 0)
(0.041584 0.0748793 0)
(0.0405105 0.0754655 0)
(0.0394288 0.0760362 0)
(0.038339 0.0765915 0)
(0.0372414 0.0771312 0)
(0.0361362 0.0776551 0)
(0.0350236 0.0781632 0)
(0.0339039 0.0786553 0)
(0.0327773 0.0791314 0)
(0.031644 0.0795914 0)
(0.0305043 0.0800352 0)
(0.0293583 0.0804626 0)
(0.0282063 0.0808736 0)
(0.0270486 0.0812681 0)
(0.0258854 0.0816461 0)
(0.0247169 0.0820074 0)
(0.0235434 0.082352 0)
(0.022365 0.0826798 0)
(0.0211821 0.0829907 0)
(0.0199949 0.0832847 0)
(0.0188036 0.0835617 0)
(0.0176085 0.0838217 0)
(0.0164097 0.0840646 0)
(0.0152077 0.0842904 0)
(0.0140025 0.0844989 0)
(0.0127945 0.0846903 0)
(0.0115838 0.0848643 0)
(0.0103708 0.0850211 0)
(0.0091557 0.0851605 0)
(0.00793872 0.0852826 0)
(0.00672012 0.0853872 0)
(0.00550015 0.0854745 0)
(0.00427906 0.0855443 0)
(0.00305709 0.0855967 0)
(0.00183451 0.0856316 0)
(0.000611543 0.0856491 0)
(0.0853929 0.000609714 0)
(0.0853754 0.00182902 0)
(0.0853406 0.00304795 0)
(0.0852884 0.00426626 0)
(0.0852188 0.0054837 0)
(0.0851318 0.00670002 0)
(0.0850274 0.00791497 0)
(0.0849057 0.00912831 0)
(0.0847667 0.0103398 0)
(0.0846105 0.0115492 0)
(0.0844369 0.0127562 0)
(0.0842461 0.0139606 0)
(0.0840382 0.0151622 0)
(0.0838131 0.0163606 0)
(0.083571 0.0175558 0)
(0.0833118 0.0187473 0)
(0.0830356 0.0199351 0)
(0.0827424 0.0211187 0)
(0.0824324 0.0222981 0)
(0.0821056 0.0234729 0)
(0.0817621 0.024643 0)
(0.0814018 0.025808 0)
(0.081025 0.0269677 0)
(0.0806317 0.028122 0)
(0.0802219 0.0292705 0)
(0.0797957 0.030413 0)
(0.0793533 0.0315494 0)
(0.0788947 0.0326793 0)
(0.07842 0.0338025 0)
(0.0779294 0.0349189 0)
(0.0774228 0.0360281 0)
(0.0769004 0.03713 0)
(0.0763624 0.0382243 0)
(0.0758088 0.0393108 0)
(0.0752397 0.0403893 0)
(0.0746553 0.0414596 0)
(0.0740557 0.0425214 0)
(0.0734409 0.0435745 0)
(0.0728112 0.0446188 0)
(0.0721667 0.0456539 0)
(0.0715074 0.0466798 0)
(0.0708336 0.0476961 0)
(0.0701453 0.0487027 0)
(0.0694427 0.0496994 0)
(0.0687259 0.0506859 0)
(0.0679951 0.0516621 0)
(0.0672505 0.0526278 0)
(0.0664921 0.0535827 0)
(0.0657202 0.0545267 0)
(0.0649349 0.0554596 0)
(0.0641363 0.0563812 0)
(0.0633247 0.0572913 0)
(0.0625002 0.0581897 0)
(0.0616629 0.0590762 0)
(0.060813 0.0599507 0)
(0.0599507 0.060813 0)
(0.0590762 0.0616629 0)
(0.0581897 0.0625002 0)
(0.0572913 0.0633247 0)
(0.0563812 0.0641363 0)
(0.0554596 0.0649349 0)
(0.0545267 0.0657202 0)
(0.0535827 0.0664921 0)
(0.0526278 0.0672505 0)
(0.0516621 0.0679951 0)
(0.0506859 0.0687259 0)
(0.0496994 0.0694427 0)
(0.0487027 0.0701453 0)
(0.0476961 0.0708336 0)
(0.0466798 0.0715074 0)
(0.0456539 0.0721667 0)
(0.0446188 0.0728112 0)
(0.0435745 0.0734409 0)
(0.0425214 0.0740557 0)
(0.0414596 0.0746553 0)
(0.0403893 0.0752397 0)
(0.0393108 0.0758088 0)
(0.0382243 0.0763624 0)
(0.03713 0.0769004 0)
(0.0360281 0.0774228 0)
(0.0349189 0.0779294 0)
(0.0338025 0.07842 0)
(0.0326793 0.0788947 0)
(0.0315494 0.0793533 0)
(0.030413 0.0797957 0)
(0.0292705 0.0802219 0)
(0.028122 0.0806317 0)
(0.0269677 0.081025 0)
(0.025808 0.0814018 0)
(0.024643 0.0817621 0)
(0.0234729 0.0821056 0)
(0.0222981 0.0824324 0)
(0.0211187 0.0827424 0)
(0.0199351 0.0830356 0)
(0.0187473 0.0833118 0)
(0.0175558 0.083571 0)
(0.0163606 0.0838131 0)
(0.0151622 0.0840382 0)
(0.0139606 0.0842461 0)
(0.0127562 0.0844369 0)
(0.0115492 0.0846105 0)
(0.0103398 0.0847667 0)
(0.00912831 0.0849057 0)
(0.00791497 0.0850274 0)
(0.00670002 0.0851318 0)
(0.0054837 0.0852188 0)
(0.00426626 0.0852884 0)
(0.00304795 0.0853406 0)
(0.00182902 0.0853754 0)
(0.000609714 0.0853929 0)
(0.085139 0.000607902 0)
(0.0851217 0.00182358 0)
(0.085087 0.00303889 0)
(0.0850349 0.00425358 0)
(0.0849655 0.0054674 0)
(0.0848787 0.0066801 0)
(0.0847747 0.00789145 0)
(0.0846534 0.00910118 0)
(0.0845148 0.0103091 0)
(0.084359 0.0115148 0)
(0.0841859 0.0127183 0)
(0.0839957 0.0139191 0)
(0.0837884 0.0151171 0)
(0.083564 0.016312 0)
(0.0833226 0.0175036 0)
(0.0830641 0.0186916 0)
(0.0827888 0.0198758 0)
(0.0824965 0.021056 0)
(0.0821874 0.0222318 0)
(0.0818616 0.0234032 0)
(0.081519 0.0245697 0)
(0.0811599 0.0257313 0)
(0.0807842 0.0268876 0)
(0.080392 0.0280384 0)
(0.0799834 0.0291835 0)
(0.0795586 0.0303226 0)
(0.0791175 0.0314556 0)
(0.0786602 0.0325821 0)
(0.0781869 0.033702 0)
(0.0776977 0.0348151 0)
(0.0771927 0.035921 0)
(0.0766719 0.0370196 0)
(0.0761354 0.0381107 0)
(0.0755835 0.039194 0)
(0.0750161 0.0402693 0)
(0.0744334 0.0413363 0)
(0.0738356 0.042395 0)
(0.0732227 0.043445 0)
(0.0725948 0.0444862 0)
(0.0719522 0.0455182 0)
(0.0712949 0.046541 0)
(0.070623 0.0475543 0)
(0.0699368 0.048558 0)
(0.0692362 0.0495517 0)
(0.0685216 0.0505353 0)
(0.067793 0.0515086 0)
(0.0670506 0.0524714 0)
(0.0662945 0.0534235 0)
(0.0655249 0.0543647 0)
(0.0647419 0.0552948 0)
(0.0639457 0.0562136 0)
(0.0631365 0.057121 0)
(0.0623144 0.0580167 0)
(0.0614796 0.0589006 0)
(0.0606322 0.0597725 0)
(0.0597725 0.0606322 0)
(0.0589006 0.0614796 0)
(0.0580167 0.0623144 0)
(0.057121 0.0631365 0)
(0.0562136 0.0639457 0)
(0.0552948 0.0647419 0)
(0.0543647 0.0655249 0)
(0.0534235 0.0662945 0)
(0.0524714 0.0670506 0)
(0.0515086 0.067793 0)
(0.0505353 0.0685216 0)
(0.0495517 0.0692362 0)
(0.048558 0.0699368 0)
(0.0475543 0.070623 0)
(0.046541 0.0712949 0)
(0.0455182 0.0719522 0)
(0.0444862 0.0725948 0)
(0.043445 0.0732227 0)
(0.042395 0.0738356 0)
(0.0413363 0.0744334 0)
(0.0402693 0.0750161 0)
(0.039194 0.0755835 0)
(0.0381107 0.0761354 0)
(0.0370196 0.0766719 0)
(0.035921 0.0771927 0)
(0.0348151 0.0776977 0)
(0.033702 0.0781869 0)
(0.0325821 0.0786602 0)
(0.0314556 0.0791175 0)
(0.0303226 0.0795586 0)
(0.0291835 0.0799834 0)
(0.0280384 0.080392 0)
(0.0268876 0.0807842 0)
(0.0257313 0.0811599 0)
(0.0245697 0.081519 0)
(0.0234032 0.0818616 0)
(0.0222318 0.0821874 0)
(0.021056 0.0824965 0)
(0.0198758 0.0827888 0)
(0.0186916 0.0830641 0)
(0.0175036 0.0833226 0)
(0.016312 0.083564 0)
(0.0151171 0.0837884 0)
(0.0139191 0.0839957 0)
(0.0127183 0.0841859 0)
(0.0115148 0.084359 0)
(0.0103091 0.0845148 0)
(0.00910118 0.0846534 0)
(0.00789145 0.0847747 0)
(0.0066801 0.0848787 0)
(0.0054674 0.0849655 0)
(0.00425358 0.0850349 0)
(0.00303889 0.085087 0)
(0.00182358 0.0851217 0)
(0.000607902 0.085139 0)
(0.0848875 0.000606105 0)
(0.0848702 0.00181819 0)
(0.0848356 0.00302991 0)
(0.0847836 0.00424101 0)
(0.0847144 0.00545124 0)
(0.084628 0.00666036 0)
(0.0845242 0.00786813 0)
(0.0844033 0.00907429 0)
(0.0842651 0.0102786 0)
(0.0841097 0.0114808 0)
(0.0839372 0.0126807 0)
(0.0837476 0.013878 0)
(0.0835409 0.0150724 0)
(0.0833171 0.0162638 0)
(0.0830764 0.0174519 0)
(0.0828187 0.0186364 0)
(0.0825441 0.0198171 0)
(0.0822527 0.0209938 0)
(0.0819446 0.0221661 0)
(0.0816197 0.023334 0)
(0.0812782 0.0244971 0)
(0.0809201 0.0256552 0)
(0.0805455 0.0268081 0)
(0.0801545 0.0279555 0)
(0.0797471 0.0290972 0)
(0.0793235 0.030233 0)
(0.0788837 0.0313626 0)
(0.0784278 0.0324859 0)
(0.0779559 0.0336025 0)
(0.0774682 0.0347122 0)
(0.0769646 0.0358149 0)
(0.0764453 0.0369102 0)
(0.0759105 0.0379981 0)
(0.0753601 0.0390782 0)
(0.0747944 0.0401503 0)
(0.0742135 0.0412142 0)
(0.0736174 0.0422697 0)
(0.0730063 0.0433166 0)
(0.0723803 0.0443547 0)
(0.0717396 0.0453837 0)
(0.0710842 0.0464035 0)
(0.0704143 0.0474138 0)
(0.0697301 0.0484145 0)
(0.0690317 0.0494053 0)
(0.0683192 0.050386 0)
(0.0675927 0.0513564 0)
(0.0668525 0.0523163 0)
(0.0660986 0.0532656 0)
(0.0653313 0.054204 0)
(0.0645506 0.0551314 0)
(0.0637568 0.0560475 0)
(0.0629499 0.0569522 0)
(0.0621303 0.0578453 0)
(0.0612979 0.0587266 0)
(0.0604531 0.0595959 0)
(0.0595959 0.0604531 0)
(0.0587266 0.0612979 0)
(0.0578453 0.0621303 0)
(0.0569522 0.0629499 0)
(0.0560475 0.0637568 0)
(0.0551314 0.0645506 0)
(0.054204 0.0653313 0)
(0.0532656 0.0660986 0)
(0.0523163 0.0668525 0)
(0.0513564 0.0675927 0)
(0.050386 0.0683192 0)
(0.0494053 0.0690317 0)
(0.0484145 0.0697301 0)
(0.0474138 0.0704143 0)
(0.0464035 0.0710842 0)
(0.0453837 0.0717396 0)
(0.0443547 0.0723803 0)
(0.0433166 0.0730063 0)
(0.0422697 0.0736174 0)
(0.0412142 0.0742135 0)
(0.0401503 0.0747944 0)
(0.0390782 0.0753601 0)
(0.0379981 0.0759105 0)
(0.0369102 0.0764453 0)
(0.0358149 0.0769646 0)
(0.0347122 0.0774682 0)
(0.0336025 0.0779559 0)
(0.0324859 0.0784278 0)
(0.0313626 0.0788837 0)
(0.030233 0.0793235 0)
(0.0290972 0.0797471 0)
(0.0279555 0.0801545 0)
(0.0268081 0.0805455 0)
(0.0256552 0.0809201 0)
(0.0244971 0.0812782 0)
(0.023334 0.0816197 0)
(0.0221661 0.0819446 0)
(0.0209938 0.0822527 0)
(0.0198171 0.0825441 0)
(0.0186364 0.0828187 0)
(0.0174519 0.0830764 0)
(0.0162638 0.0833171 0)
(0.0150724 0.0835409 0)
(0.013878 0.0837476 0)
(0.0126807 0.0839372 0)
(0.0114808 0.0841097 0)
(0.0102786 0.0842651 0)
(0.00907429 0.0844033 0)
(0.00786813 0.0845242 0)
(0.00666036 0.084628 0)
(0.00545124 0.0847144 0)
(0.00424101 0.0847836 0)
(0.00302991 0.0848356 0)
(0.00181819 0.0848702 0)
(0.000606105 0.0848875 0)
(0.0846384 0.000604327 0)
(0.0846211 0.00181286 0)
(0.0845866 0.00302102 0)
(0.0845348 0.00422856 0)
(0.0844658 0.00543525 0)
(0.0843796 0.00664082 0)
(0.0842762 0.00784504 0)
(0.0841556 0.00904766 0)
(0.0840178 0.0102484 0)
(0.0838629 0.0114471 0)
(0.0836909 0.0126435 0)
(0.0835018 0.0138372 0)
(0.0832957 0.0150282 0)
(0.0830726 0.0162161 0)
(0.0828326 0.0174007 0)
(0.0825757 0.0185817 0)
(0.0823019 0.0197589 0)
(0.0820114 0.0209322 0)
(0.0817041 0.0221011 0)
(0.0813802 0.0232655 0)
(0.0810397 0.0244252 0)
(0.0806826 0.0255799 0)
(0.0803091 0.0267294 0)
(0.0799193 0.0278735 0)
(0.0795131 0.0290119 0)
(0.0790907 0.0301443 0)
(0.0786522 0.0312706 0)
(0.0781977 0.0323905 0)
(0.0777272 0.0335039 0)
(0.0772408 0.0346103 0)
(0.0767387 0.0357098 0)
(0.076221 0.0368019 0)
(0.0756877 0.0378866 0)
(0.075139 0.0389635 0)
(0.074575 0.0400325 0)
(0.0739957 0.0410933 0)
(0.0734014 0.0421457 0)
(0.0727921 0.0431895 0)
(0.0721679 0.0442246 0)
(0.0715291 0.0452506 0)
(0.0708756 0.0462674 0)
(0.0702077 0.0472747 0)
(0.0695255 0.0482724 0)
(0.0688291 0.0492603 0)
(0.0681187 0.0502381 0)
(0.0673944 0.0512057 0)
(0.0666563 0.0521628 0)
(0.0659046 0.0531093 0)
(0.0651395 0.054045 0)
(0.0643612 0.0549696 0)
(0.0635697 0.0558831 0)
(0.0627652 0.0567851 0)
(0.0619479 0.0576756 0)
(0.0611181 0.0585543 0)
(0.0602757 0.0594211 0)
(0.0594211 0.0602757 0)
(0.0585543 0.0611181 0)
(0.0576756 0.0619479 0)
(0.0567851 0.0627652 0)
(0.0558831 0.0635697 0)
(0.0549696 0.0643612 0)
(0.054045 0.0651395 0)
(0.0531093 0.0659046 0)
(0.0521628 0.0666563 0)
(0.0512057 0.0673944 0)
(0.0502381 0.0681187 0)
(0.0492603 0.0688291 0)
(0.0482724 0.0695255 0)
(0.0472747 0.0702077 0)
(0.0462674 0.0708756 0)
(0.0452506 0.0715291 0)
(0.0442246 0.0721679 0)
(0.0431895 0.0727921 0)
(0.0421457 0.0734014 0)
(0.0410933 0.0739957 0)
(0.0400325 0.074575 0)
(0.0389635 0.075139 0)
(0.0378866 0.0756877 0)
(0.0368019 0.076221 0)
(0.0357098 0.0767387 0)
(0.0346103 0.0772408 0)
(0.0335039 0.0777272 0)
(0.0323905 0.0781977 0)
(0.0312706 0.0786522 0)
(0.0301443 0.0790907 0)
(0.0290119 0.0795131 0)
(0.0278735 0.0799193 0)
(0.0267294 0.0803091 0)
(0.0255799 0.0806826 0)
(0.0244252 0.0810397 0)
(0.0232655 0.0813802 0)
(0.0221011 0.0817041 0)
(0.0209322 0.0820114 0)
(0.0197589 0.0823019 0)
(0.0185817 0.0825757 0)
(0.0174007 0.0828326 0)
(0.0162161 0.0830726 0)
(0.0150282 0.0832957 0)
(0.0138372 0.0835018 0)
(0.0126435 0.0836909 0)
(0.0114471 0.0838629 0)
(0.0102484 0.0840178 0)
(0.00904766 0.0841556 0)
(0.00784504 0.0842762 0)
(0.00664082 0.0843796 0)
(0.00543525 0.0844658 0)
(0.00422856 0.0845348 0)
(0.00302102 0.0845866 0)
(0.00181286 0.0846211 0)
(0.000604327 0.0846384 0)
(0.0843917 0.000602566 0)
(0.0843745 0.00180757 0)
(0.0843401 0.00301221 0)
(0.0842885 0.00421624 0)
(0.0842197 0.00541941 0)