/*--------------------------------*- C++ -*----------------------------------*\
| =========                 |                                                 |
| \\      /  F ield         | OpenFOAM: The Open Source CFD Toolbox           |
|  \\    /   O peration     | Version:  2312                                  |
|   \\  /    A nd           | Website:  www.openfoam.com                      |
|    \\/     M anipulation  |                                                 |
\*---------------------------------------------------------------------------*/
FoamFile
{
    version     2.0;
    format      ascii;
    arch        "LSB;label=32;scalar=64";
    class       volTensorField;
    location    "20";
    object      F;
}
// * * * * * * * * * * * * * * * * * * * * * * * * * * * * * * * * * * * * * //

dimensions      [0 0 0 0 0 0 0];

internalField   nonuniform List<tensor> 
12870
(
(0.952546 -0.000873433 1.07241e-20 -0.000873433 1.07487 -4.10226e-18 0 0 1)
(0.952596 -0.00261959 -2.67883e-18 -0.00261959 1.07482 1.9942e-18 0 0 1)
(0.952696 -0.00436361 3.83678e-18 -0.00436361 1.07472 4.24188e-18 0 0 1)
(0.952846 -0.00610406 1.11743e-19 -0.00610406 1.07457 -2.04809e-18 0 0 1)
(0.953045 -0.00783954 -1.46064e-18 -0.00783955 1.07437 1.96137e-18 0 0 1)
(0.953293 -0.00956863 3.99196e-18 -0.00956863 1.07412 3.14174e-19 0 0 1)
(0.953591 -0.0112899 -1.13583e-18 -0.0112899 1.07382 -2.16571e-18 0 0 1)
(0.953938 -0.013002 2.45653e-18 -0.013002 1.07348 2.32704e-18 0 0 1)
(0.954334 -0.0147035 -4.96706e-19 -0.0147035 1.07308 4.07205e-18 0 0 1)
(0.954778 -0.0163929 2.37068e-18 -0.0163929 1.07264 2.39373e-18 0 0 1)
(0.95527 -0.018069 2.94904e-18 -0.018069 1.07214 -1.62887e-18 0 0 1)
(0.95581 -0.0197304 2.64589e-18 -0.0197304 1.0716 -7.87789e-18 0 0 1)
(0.956397 -0.0213757 -5.22379e-18 -0.0213757 1.07102 -9.42476e-19 0 0 1)
(0.957031 -0.0230035 -1.37078e-18 -0.0230035 1.07038 -2.67582e-19 0 0 1)
(0.957711 -0.0246126 -2.15753e-18 -0.0246126 1.0697 -2.54912e-18 0 0 1)
(0.958436 -0.0262016 -3.97643e-18 -0.0262016 1.06898 5.41241e-18 0 0 1)
(0.959207 -0.0277692 -4.8785e-19 -0.0277692 1.06821 1.99228e-18 0 0 1)
(0.960022 -0.0293142 1.2993e-18 -0.0293142 1.06739 3.31628e-19 0 0 1)
(0.960881 -0.0308353 1.82106e-18 -0.0308353 1.06653 -1.63223e-18 0 0 1)
(0.961783 -0.0323312 5.72725e-19 -0.0323312 1.06563 -1.96955e-18 0 0 1)
(0.962728 -0.0338008 0 -0.0338008 1.06469 0 0 0 1)
(0.963714 -0.0352428 -1.88929e-18 -0.0352428 1.0637 1.55274e-18 0 0 1)
(0.964741 -0.036656 -1.29548e-18 -0.036656 1.06267 3.8923e-18 0 0 1)
(0.965807 -0.0380394 1.91533e-18 -0.0380394 1.06161 -1.50428e-18 0 0 1)
(0.966913 -0.0393917 1.6382e-19 -0.0393917 1.0605 -4.30699e-18 0 0 1)
(0.968057 -0.0407119 1.06242e-18 -0.0407119 1.05936 4.79501e-18 0 0 1)
(0.969238 -0.0419989 3.95599e-18 -0.0419989 1.05818 -2.84173e-18 0 0 1)
(0.970456 -0.0432516 -8.56454e-19 -0.0432516 1.05696 -4.79498e-18 0 0 1)
(0.971708 -0.0444691 -1.26553e-18 -0.0444691 1.05571 -5.45499e-19 0 0 1)
(0.972995 -0.0456503 -5.29779e-18 -0.0456503 1.05442 2.12137e-18 0 0 1)
(0.974316 -0.0467942 -1.06358e-18 -0.0467942 1.0531 8.55435e-18 0 0 1)
(0.975668 -0.0479 1.76694e-18 -0.0479 1.05175 -3.70224e-18 0 0 1)
(0.977051 -0.0489667 -2.56101e-19 -0.0489667 1.05036 -2.42193e-18 0 0 1)
(0.978464 -0.0499935 -2.14288e-18 -0.0499935 1.04895 1.19929e-18 0 0 1)
(0.979906 -0.0509795 2.14343e-18 -0.0509795 1.04751 -1.17735e-18 0 0 1)
(0.981376 -0.0519239 -1.68374e-19 -0.0519239 1.04604 -2.43969e-18 0 0 1)
(0.982872 -0.052826 2.02655e-18 -0.052826 1.04454 -3.56675e-18 0 0 1)
(0.984393 -0.053685 -1.97274e-19 -0.053685 1.04302 -4.887e-18 0 0 1)
(0.985938 -0.0545002 -6.701e-18 -0.0545002 1.04148 7.04832e-19 0 0 1)
(0.987506 -0.055271 -6.65274e-18 -0.055271 1.03991 5.49972e-18 0 0 1)
(0.989095 -0.0559966 2.21467e-18 -0.0559966 1.03832 1.44573e-18 0 0 1)
(0.990704 -0.0566766 3.08002e-20 -0.0566766 1.03671 2.07395e-20 0 0 1)
(0.992332 -0.0573104 -1.51863e-19 -0.0573104 1.03508 4.88863e-18 0 0 1)
(0.993977 -0.0578975 2.37238e-18 -0.0578975 1.03344 -3.34671e-18 0 0 1)
(0.995638 -0.0584373 -1.04932e-18 -0.0584373 1.03178 -7.73882e-19 0 0 1)
(0.997314 -0.0589294 -3.61088e-19 -0.0589294 1.0301 4.87764e-18 0 0 1)
(0.999004 -0.0593735 0 -0.0593735 1.02841 0 0 0 1)
(1.00071 -0.0597692 3.60369e-18 -0.0597692 1.02671 -2.36441e-18 0 0 1)
(1.00242 -0.0601161 5.23874e-18 -0.0601161 1.025 -6.31417e-18 0 0 1)
(1.00414 -0.060414 -3.80715e-19 -0.060414 1.02328 -5.71995e-18 0 0 1)
(1.00587 -0.0606626 -3.0214e-18 -0.0606626 1.02155 -2.65606e-18 0 0 1)
(1.0076 -0.0608617 -7.09077e-18 -0.0608617 1.01981 1.88276e-18 0 0 1)
(1.00934 -0.0610112 -1.84107e-18 -0.0610112 1.01807 3.89085e-18 0 0 1)
(1.01109 -0.0611109 -1.92318e-18 -0.0611109 1.01633 -1.8425e-18 0 0 1)
(1.01283 -0.0611608 -3.83488e-18 -0.0611608 1.01458 1.97994e-18 0 0 1)
(1.01458 -0.0611608 5.20675e-18 -0.0611608 1.01283 2.35999e-18 0 0 1)
(1.01633 -0.0611109 2.56879e-20 -0.0611109 1.01109 2.68126e-20 0 0 1)
(1.01807 -0.0610112 2.96445e-18 -0.0610112 1.00934 -2.8361e-18 0 0 1)
(1.01981 -0.0608617 -2.64911e-18 -0.0608617 1.0076 -2.92809e-18 0 0 1)
(1.02155 -0.0606626 -1.34706e-18 -0.0606626 1.00587 4.68089e-18 0 0 1)
(1.02328 -0.060414 -2.40042e-18 -0.060414 1.00414 3.47714e-19 0 0 1)
(1.025 -0.0601161 3.9659e-18 -0.0601161 1.00242 -1.64452e-18 0 0 1)
(1.02671 -0.0597692 -8.74723e-19 -0.0597692 1.00071 -4.35433e-18 0 0 1)
(1.02841 -0.0593735 -3.22167e-18 -0.0593735 0.999004 5.86774e-18 0 0 1)
(1.0301 -0.0589294 8.22482e-19 -0.0589294 0.997314 1.08251e-18 0 0 1)
(1.03178 -0.0584373 -1.10198e-20 -0.0584373 0.995638 -1.49419e-20 0 0 1)
(1.03344 -0.0578975 2.45378e-18 -0.0578975 0.993977 -9.57296e-20 0 0 1)
(1.03508 -0.0573104 9.14755e-19 -0.0573104 0.992332 -2.27891e-18 0 0 1)
(1.03671 -0.0566766 5.0989e-18 -0.0566766 0.990704 -3.44456e-18 0 0 1)
(1.03832 -0.0559966 -6.3367e-18 -0.0559966 0.989095 -2.20247e-18 0 0 1)
(1.03991 -0.055271 -2.77964e-18 -0.055271 0.987506 3.2793e-18 0 0 1)
(1.04148 -0.0545002 3.50743e-18 -0.0545002 0.985938 -2.12758e-18 0 0 1)
(1.04302 -0.053685 -2.15e-18 -0.053685 0.984393 4.4157e-18 0 0 1)
(1.04454 -0.052826 -1.79262e-18 -0.052826 0.982872 9.97176e-19 0 0 1)
(1.04604 -0.0519239 3.58631e-18 -0.0519239 0.981376 -1.99165e-18 0 0 1)
(1.04751 -0.0509795 1.17735e-18 -0.0509795 0.979906 -2.14343e-18 0 0 1)
(1.04895 -0.0499935 -6.17298e-19 -0.0499935 0.978464 -1.19043e-18 0 0 1)
(1.05036 -0.0489667 -1.83e-18 -0.0489667 0.977051 9.26415e-19 0 0 1)
(1.05175 -0.0479 1.74108e-18 -0.0479 0.975668 3.60598e-18 0 0 1)
(1.0531 -0.0467942 7.83297e-21 -0.0467942 0.974316 1.68327e-20 0 0 1)
(1.05442 -0.0456503 4.27674e-18 -0.0456503 0.972995 -4.87603e-19 0 0 1)
(1.05571 -0.0444691 -4.79937e-18 -0.0444691 0.971708 -7.70847e-19 0 0 1)
(1.05696 -0.0432516 1.50396e-18 -0.0432516 0.970456 3.63089e-18 0 0 1)
(1.05818 -0.0419989 4.25574e-18 -0.0419989 0.969238 -5.95124e-18 0 0 1)
(1.05936 -0.0407119 -3.83986e-18 -0.0407119 0.968057 1.44364e-18 0 0 1)
(1.0605 -0.0393917 -1.92368e-18 -0.0393917 0.966913 7.11772e-19 0 0 1)
(1.06161 -0.0380394 -3.43181e-18 -0.0380394 0.965807 2.61709e-18 0 0 1)
(1.06267 -0.036656 6.24727e-18 -0.036656 0.964741 -7.14927e-19 0 0 1)
(1.0637 -0.0352428 2.2444e-20 -0.0352428 0.963714 7.07911e-20 0 0 1)
(1.06469 -0.0338008 -3.55681e-18 -0.0338008 0.962728 2.41439e-18 0 0 1)
(1.06563 -0.0323312 -3.58389e-19 -0.0323312 0.961783 -1.2536e-18 0 0 1)
(1.06653 -0.0308353 6.90599e-19 -0.0308353 0.960881 2.55303e-18 0 0 1)
(1.06739 -0.0293142 7.94961e-18 -0.0293142 0.960022 -2.02902e-18 0 0 1)
(1.06821 -0.0277692 -4.60196e-18 -0.0277692 0.959207 -1.59601e-18 0 0 1)
(1.06898 -0.0262016 -8.01246e-18 -0.0262016 0.958436 1.76495e-18 0 0 1)
(1.0697 -0.0246126 5.1135e-18 -0.0246126 0.957711 4.38774e-18 0 0 1)
(1.07038 -0.0230035 1.76154e-18 -0.0230035 0.957031 -1.68175e-18 0 0 1)
(1.07102 -0.0213757 -4.03705e-18 -0.0213757 0.956397 7.28364e-19 0 0 1)
(1.0716 -0.0197304 2.23819e-18 -0.0197304 0.95581 9.60122e-19 0 0 1)
(1.07214 -0.018069 7.9121e-18 -0.018069 0.95527 -2.55148e-18 0 0 1)
(1.07264 -0.0163929 -2.02599e-18 -0.0163929 0.954778 3.23389e-19 0 0 1)
(1.07308 -0.0147035 -6.27381e-18 -0.0147035 0.954334 -6.13678e-19 0 0 1)
(1.07348 -0.013002 0 -0.013002 0.953938 0 0 0 1)
(1.07382 -0.0112899 2.04143e-18 -0.0112899 0.953591 -1.99354e-19 0 0 1)
(1.07412 -0.00956863 6.13365e-18 -0.00956863 0.953293 -4.9204e-19 0 0 1)
(1.07437 -0.00783954 -2.21612e-18 -0.00783954 0.953045 -2.49835e-18 0 0 1)
(1.07457 -0.00610406 -4.03197e-18 -0.00610406 0.952846 1.50714e-18 0 0 1)
(1.07472 -0.00436361 6.14909e-18 -0.00436361 0.952696 -2.28904e-19 0 0 1)
(1.07482 -0.00261959 -5.66468e-20 -0.00261959 0.952596 -2.64418e-18 0 0 1)
(1.07487 -0.000873433 -4.10226e-18 -0.000873433 0.952546 1.07241e-20 0 0 1)
(0.953645 -0.000853447 -1.32825e-18 -0.000853447 1.07317 -9.48383e-21 0 0 1)
(0.953694 -0.00255965 -2.56467e-18 -0.00255964 1.07312 -4.0092e-18 0 0 1)
(0.953791 -0.00426376 -9.79697e-22 -0.00426376 1.07302 -3.49769e-23 0 0 1)
(0.953938 -0.00596439 -3.0519e-19 -0.00596439 1.07288 5.92218e-18 0 0 1)
(0.954132 -0.00766016 -2.42068e-18 -0.00766016 1.07268 -4.1173e-18 0 0 1)
(0.954375 -0.00934968 1.34104e-18 -0.00934968 1.07244 1.05542e-19 0 0 1)
(0.954666 -0.0110316 -4.12243e-20 -0.0110316 1.07215 -3.83743e-21 0 0 1)
(0.955005 -0.0127045 2.89861e-20 -0.0127045 1.07181 3.11635e-21 0 0 1)
(0.955392 -0.014367 -1.83269e-18 -0.014367 1.07142 3.75911e-18 0 0 1)
(0.955826 -0.0160178 1.568e-18 -0.0160178 1.07099 -1.78098e-18 0 0 1)
(0.956306 -0.0176556 -2.4224e-20 -0.0176556 1.07051 -3.65961e-21 0 0 1)
(0.956834 -0.0192789 3.29049e-18 -0.0192789 1.06998 4.55254e-18 0 0 1)
(0.957408 -0.0208866 -3.28567e-18 -0.0208866 1.06941 3.42438e-18 0 0 1)
(0.958027 -0.0224771 -5.51793e-19 -0.0224771 1.06879 -4.13568e-18 0 0 1)
(0.958691 -0.0240494 -3.84075e-18 -0.0240494 1.06812 -8.06827e-19 0 0 1)
(0.9594 -0.0256021 -4.36223e-19 -0.0256021 1.06741 1.92794e-18 0 0 1)
(0.960153 -0.0271338 9.22892e-19 -0.0271338 1.06666 -3.84412e-18 0 0 1)
(0.96095 -0.0286435 1.77266e-18 -0.0286435 1.06586 -1.5876e-18 0 0 1)
(0.961789 -0.0301297 -1.29402e-18 -0.0301297 1.06502 -3.50036e-19 0 0 1)
(0.962671 -0.0315914 -2.55423e-18 -0.0315914 1.06414 -7.30222e-19 0 0 1)
(0.963594 -0.0330274 -5.6186e-19 -0.0330274 1.06322 1.89516e-18 0 0 1)
(0.964557 -0.0344363 -3.12658e-18 -0.0344363 1.06226 1.08238e-18 0 0 1)
(0.96556 -0.0358173 1.26031e-18 -0.0358173 1.06125 4.19471e-19 0 0 1)
(0.966603 -0.0371689 1.24262e-18 -0.0371689 1.06021 4.33391e-19 0 0 1)
(0.967683 -0.0384903 7.711e-19 -0.0384903 1.05913 -6.03108e-18 0 0 1)
(0.968801 -0.0397803 -5.18318e-19 -0.0397803 1.05801 -2.31293e-18 0 0 1)
(0.969955 -0.0410378 -2.65652e-19 -0.0410378 1.05686 4.14873e-18 0 0 1)
(0.971145 -0.0422619 -5.63424e-18 -0.0422619 1.05567 -1.94238e-19 0 0 1)
(0.972369 -0.0434515 -1.99919e-18 -0.0434515 1.05444 1.29075e-18 0 0 1)
(0.973626 -0.0446057 8.33658e-19 -0.0446057 1.05319 -1.7925e-18 0 0 1)
(0.974916 -0.0457234 1.57671e-18 -0.0457234 1.0519 2.91392e-18 0 0 1)
(0.976238 -0.0468039 1.50868e-18 -0.0468039 1.05058 2.92347e-18 0 0 1)
(0.977589 -0.0478462 2.69461e-20 -0.0478462 1.04922 1.34883e-20 0 0 1)
(0.97897 -0.0488495 8.97004e-19 -0.0488495 1.04784 -1.76149e-18 0 0 1)
(0.980379 -0.049813 9.47752e-19 -0.049813 1.04643 -1.73471e-18 0 0 1)
(0.981815 -0.0507358 -4.92592e-21 -0.0507358 1.045 -2.7356e-21 0 0 1)
(0.983277 -0.0516172 9.92016e-19 -0.0516172 1.04354 -1.70975e-18 0 0 1)
(0.984763 -0.0524566 -4.26551e-18 -0.0524566 1.04205 2.066e-18 0 0 1)
(0.986273 -0.0532531 -4.30419e-18 -0.0532531 1.04054 1.99899e-18 0 0 1)
(0.987805 -0.0540062 2.11913e-18 -0.0540062 1.03901 -3.33741e-18 0 0 1)
(0.989357 -0.0547153 6.60456e-18 -0.0547153 1.03746 -4.09709e-19 0 0 1)
(0.990929 -0.0553797 0 -0.0553797 1.03588 0 0 0 1)
(0.99252 -0.055999 -7.79631e-20 -0.055999 1.03429 4.75869e-18 0 0 1)
(0.994128 -0.0565726 -1.17223e-18 -0.0565726 1.03269 1.59181e-18 0 0 1)
(0.995751 -0.0571001 2.35636e-18 -0.0571001 1.03106 -3.17439e-18 0 0 1)
(0.997389 -0.057581 -2.25163e-18 -0.057581 1.02942 7.71739e-19 0 0 1)
(0.99904 -0.0580149 8.52778e-19 -0.0580149 1.02777 3.17735e-18 0 0 1)
(1.0007 -0.0584015 2.47107e-18 -0.0584015 1.02611 -3.08593e-18 0 0 1)
(1.00237 -0.0587405 -2.03073e-18 -0.0587405 1.02444 -1.68486e-18 0 0 1)
(1.00406 -0.0590315 -1.2626e-18 -0.0590315 1.02276 1.52114e-18 0 0 1)
(1.00575 -0.0592745 -2.96524e-18 -0.0592745 1.02107 -2.60669e-18 0 0 1)
(1.00744 -0.059469 -1.6082e-18 -0.059469 1.01937 -4.12057e-18 0 0 1)
(1.00914 -0.0596151 -2.30844e-18 -0.0596151 1.01767 5.51536e-19 0 0 1)
(1.01085 -0.0597125 -4.64843e-18 -0.0597125 1.01597 1.02144e-18 0 0 1)
(1.01255 -0.0597613 5.53408e-18 -0.0597613 1.01426 -5.64717e-18 0 0 1)
(1.01426 -0.0597613 4.68361e-18 -0.0597613 1.01255 -8.80259e-19 0 0 1)
(1.01597 -0.0597125 -9.38497e-18 -0.0597125 1.01085 1.6333e-18 0 0 1)
(1.01767 -0.0596151 -5.59883e-19 -0.0596151 1.00914 2.29947e-18 0 0 1)
(1.01937 -0.059469 -6.083e-19 -0.059469 1.00744 -6.565e-18 0 0 1)
(1.02107 -0.0592745 1.7496e-18 -0.0592745 1.00575 1.99026e-18 0 0 1)
(1.02276 -0.0590315 -4.7235e-18 -0.0590315 1.00406 5.56745e-19 0 0 1)
(1.02444 -0.0587405 2.52518e-18 -0.0587405 1.00238 3.04356e-18 0 0 1)
(1.02611 -0.0584015 6.00936e-19 -0.0584015 1.0007 -5.55476e-18 0 0 1)
(1.02777 -0.0580149 2.36569e-18 -0.0580149 0.99904 -1.84399e-19 0 0 1)
(1.02942 -0.057581 -2.34084e-18 -0.057581 0.997389 3.45381e-18 0 0 1)
(1.03106 -0.0571001 3.13236e-18 -0.0571001 0.995751 4.24722e-18 0 0 1)
(1.03269 -0.0565726 -7.59365e-19 -0.0565726 0.994128 -1.06103e-18 0 0 1)
(1.03429 -0.055999 -1.34132e-20 -0.055999 0.99252 -1.93186e-20 0 0 1)
(1.03588 -0.0553797 -1.46381e-18 -0.0553797 0.990929 -2.1739e-18 0 0 1)
(1.03746 -0.0547153 -3.82135e-18 -0.0547153 0.989357 -2.23772e-18 0 0 1)
(1.03901 -0.0540062 3.3344e-18 -0.0540062 0.987805 -2.1239e-18 0 0 1)
(1.04054 -0.0532531 4.35748e-18 -0.0532531 0.986273 -4.2386e-18 0 0 1)
(1.04205 -0.0524566 -4.74063e-18 -0.0524566 0.984763 -2.42334e-19 0 0 1)
(1.04354 -0.0516172 -3.84206e-18 -0.0516172 0.983277 5.21782e-18 0 0 1)
(1.045 -0.0507358 2.37731e-18 -0.0507358 0.981815 2.09365e-19 0 0 1)
(1.04643 -0.049813 5.79362e-21 -0.049813 0.980379 1.07927e-20 0 0 1)
(1.04784 -0.0488495 1.7563e-18 -0.0488495 0.97897 -9.07008e-19 0 0 1)
(1.04922 -0.0478462 5.29878e-18 -0.0478462 0.977589 -2.66238e-18 0 0 1)
(1.05058 -0.0468039 5.77114e-19 -0.0468039 0.976238 1.19527e-18 0 0 1)
(1.0519 -0.0457234 -2.47102e-18 -0.0457234 0.974916 4.06026e-18 0 0 1)
(1.05319 -0.0446057 5.38139e-19 -0.0446057 0.973626 1.20098e-18 0 0 1)
(1.05444 -0.0434515 -1.56765e-18 -0.0434515 0.972369 -3.63687e-18 0 0 1)
(1.05567 -0.0422619 -1.32854e-18 -0.0422619 0.971145 1.95792e-18 0 0 1)
(1.05686 -0.0410378 6.96946e-21 -0.0410378 0.969955 1.75297e-20 0 0 1)
(1.05801 -0.0397803 1.85025e-18 -0.0397803 0.968801 -6.95628e-19 0 0 1)
(1.05913 -0.0384903 -4.55289e-19 -0.0384903 0.967683 -1.24782e-18 0 0 1)
(1.06021 -0.0371689 -1.86751e-18 -0.0371689 0.966603 6.47829e-19 0 0 1)
(1.06125 -0.0358173 4.15535e-18 -0.0358173 0.96556 -3.37189e-20 0 0 1)
(1.06226 -0.0344363 1.62147e-20 -0.0344363 0.964557 5.11431e-20 0 0 1)
(1.06322 -0.0330274 -5.30571e-18 -0.0330274 0.963594 2.94563e-18 0 0 1)
(1.06414 -0.0315914 1.53633e-18 -0.0315914 0.962671 -1.81728e-18 0 0 1)
(1.06502 -0.0301297 3.29139e-18 -0.0301297 0.961789 4.59764e-18 0 0 1)
(1.06586 -0.0286435 -3.28493e-19 -0.0286435 0.96095 -1.28702e-18 0 0 1)
(1.06666 -0.0271338 -4.45439e-18 -0.0271338 0.960153 -1.61906e-18 0 0 1)
(1.06741 -0.0256021 4.13674e-18 -0.0256021 0.9594 3.75629e-19 0 0 1)
(1.06812 -0.0240494 2.48339e-18 -0.0240494 0.958691 2.20675e-18 0 0 1)
(1.06879 -0.0224771 -5.82297e-18 -0.0224771 0.958027 1.12181e-18 0 0 1)
(1.06941 -0.0208866 0 -0.0208866 0.957408 0 0 0 1)
(1.06998 -0.0192789 8.66601e-19 -0.0192789 0.956834 5.22956e-18 0 0 1)
(1.07051 -0.0176556 5.86132e-18 -0.0176556 0.956306 -9.00232e-19 0 0 1)
(1.07099 -0.0160178 -2.30933e-18 -0.0160178 0.955826 -2.3028e-18 0 0 1)
(1.07142 -0.014367 -5.7295e-18 -0.014367 0.955392 2.00431e-18 0 0 1)
(1.07181 -0.0127045 1.82432e-18 -0.0127045 0.955005 -1.52308e-18 0 0 1)
(1.07215 -0.0110316 1.84423e-18 -0.0110316 0.954666 -1.51468e-18 0 0 1)
(1.07244 -0.00934968 1.86707e-18 -0.00934968 0.954375 -1.47036e-18 0 0 1)
(1.07268 -0.00766016 -1.6902e-19 -0.00766016 0.954132 -2.62663e-18 0 0 1)
(1.07288 -0.00596439 6.57478e-20 -0.00596439 0.953938 1.31439e-18 0 0 1)
(1.07302 -0.00426376 0 -0.00426376 0.953791 0 0 0 1)
(1.07312 -0.00255964 -5.63744e-20 -0.00255965 0.953694 -2.63146e-18 0 0 1)
(1.07317 -0.000853447 0 -0.000853447 0.953645 0 0 0 1)
(0.955217 -0.000830635 1.69247e-20 -0.000830635 1.07154 -1.90625e-18 0 0 1)
(0.955264 -0.00249123 1.70371e-20 -0.00249123 1.0715 3.64979e-22 0 0 1)
(0.955359 -0.00414979 -5.18227e-18 -0.00414979 1.0714 -1.85085e-19 0 0 1)
(0.955501 -0.00580497 -2.66848e-18 -0.00580497 1.07126 1.77523e-18 0 0 1)
(0.95569 -0.00745541 3.87277e-18 -0.00745541 1.07107 2.49207e-19 0 0 1)
(0.955927 -0.00909977 -2.25428e-18 -0.00909977 1.07083 -4.00186e-18 0 0 1)
(0.95621 -0.0107367 -1.30719e-18 -0.0107367 1.07055 -1.21683e-19 0 0 1)
(0.95654 -0.0123649 -2.95419e-18 -0.0123649 1.07022 3.51701e-18 0 0 1)
(0.956916 -0.013983 1.04699e-18 -0.013983 1.06984 2.04817e-18 0 0 1)
(0.957339 -0.0155897 2.60672e-18 -0.0155897 1.06942 3.55813e-19 0 0 1)
(0.957807 -0.0171837 8.3557e-19 -0.0171837 1.06895 -5.65764e-18 0 0 1)
(0.95832 -0.0187636 6.50387e-19 -0.0187636 1.06844 -3.75687e-18 0 0 1)
(0.958878 -0.0203283 1.18349e-18 -0.0203283 1.06788 7.96194e-18 0 0 1)
(0.959481 -0.0218764 -3.90316e-19 -0.0218764 1.06728 1.86611e-18 0 0 1)
(0.960128 -0.0234066 7.95398e-19 -0.0234066 1.06663 -3.72878e-18 0 0 1)
(0.960818 -0.0249177 2.53208e-18 -0.0249177 1.06594 5.69784e-19 0 0 1)
(0.961551 -0.0264086 1.24849e-18 -0.0264086 1.06521 2.99737e-19 0 0 1)
(0.962326 -0.0278778 -4.46679e-19 -0.0278778 1.06443 1.85343e-18 0 0 1)
(0.963143 -0.0293244 -9.89151e-19 -0.0293244 1.06362 3.68211e-18 0 0 1)
(0.964001 -0.030747 6.05795e-18 -0.030747 1.06276 -2.23351e-18 0 0 1)
(0.964899 -0.0321446 3.2632e-20 -0.0321446 1.06186 9.83525e-21 0 0 1)
(0.965837 -0.0335159 1.21897e-18 -0.0335159 1.06092 3.86466e-19 0 0 1)
(0.966813 -0.0348599 4.31834e-18 -0.0348599 1.05995 -5.7186e-19 0 0 1)
(0.967828 -0.0361755 5.92611e-19 -0.0361755 1.05893 2.22563e-18 0 0 1)
(0.968879 -0.0374615 -1.2222e-18 -0.0374615 1.05788 -4.45941e-19 0 0 1)
(0.969967 -0.038717 -2.39823e-18 -0.038717 1.05679 -9.14053e-19 0 0 1)
(0.97109 -0.0399409 -6.85381e-19 -0.0399409 1.05567 1.77897e-18 0 0 1)
(0.972248 -0.0411323 6.12302e-21 -0.0411323 1.05451 2.53625e-21 0 0 1)
(0.97344 -0.0422901 4.19747e-18 -0.0422901 1.05332 -6.49423e-18 0 0 1)
(0.974664 -0.0434134 1.97326e-18 -0.0434134 1.0521 -1.20477e-18 0 0 1)
(0.975919 -0.0445013 -1.624e-18 -0.0445013 1.05084 3.44952e-18 0 0 1)
(0.977205 -0.0455529 -2.13141e-20 -0.0455529 1.04956 -1.02911e-20 0 0 1)
(0.978521 -0.0465674 3.07129e-19 -0.0465674 1.04824 2.28556e-18 0 0 1)
(0.979865 -0.0475438 -8.95629e-19 -0.0475438 1.0469 1.68296e-18 0 0 1)
(0.981236 -0.0484815 -1.38803e-18 -0.0484815 1.04553 -2.90873e-18 0 0 1)
(0.982634 -0.0493797 2.06002e-18 -0.0493797 1.04413 -1.03654e-18 0 0 1)
(0.984056 -0.0502376 0 -0.0502376 1.0427 0 0 0 1)
(0.985503 -0.0510545 2.23777e-18 -0.0510545 1.04126 1.32773e-18 0 0 1)
(0.986972 -0.0518297 2.19841e-18 -0.0518297 1.03979 1.34719e-18 0 0 1)
(0.988463 -0.0525627 2.00392e-18 -0.0525627 1.0383 -3.24381e-18 0 0 1)
(0.989974 -0.0532528 2.18758e-18 -0.0532528 1.03679 1.42804e-18 0 0 1)
(0.991504 -0.0538995 -2.14363e-18 -0.0538995 1.03526 3.153e-18 0 0 1)
(0.993052 -0.0545022 -2.16044e-18 -0.0545022 1.03371 3.14151e-18 0 0 1)
(0.994617 -0.0550605 2.08823e-18 -0.0550605 1.03214 1.49452e-18 0 0 1)
(0.996197 -0.0555739 -2.15378e-18 -0.0555739 1.03056 7.80262e-19 0 0 1)
(0.997791 -0.0560419 -1.24374e-20 -0.0560419 1.02897 -9.44982e-21 0 0 1)
(0.999398 -0.0564642 3.2389e-18 -0.0564642 1.02736 1.13985e-19 0 0 1)
(1.00102 -0.0568405 -3.40939e-18 -0.0568405 1.02575 2.14908e-18 0 0 1)
(1.00264 -0.0571704 4.86092e-18 -0.0571704 1.02412 -5.8751e-18 0 0 1)
(1.00428 -0.0574537 2.6712e-19 -0.0574537 1.02248 -2.27884e-18 0 0 1)
(1.00593 -0.0576901 -2.81796e-18 -0.0576901 1.02084 5.13737e-18 0 0 1)
(1.00758 -0.0578795 -3.07866e-19 -0.0578795 1.01919 2.2922e-18 0 0 1)
(1.00923 -0.0580216 -1.28792e-18 -0.0580216 1.01753 1.40555e-18 0 0 1)
(1.01089 -0.0581165 1.31264e-18 -0.0581165 1.01587 -1.38243e-18 0 0 1)
(1.01255 -0.0581639 4.5212e-18 -0.0581639 1.01421 -8.96716e-19 0 0 1)
(1.01421 -0.0581639 -5.85289e-18 -0.0581639 1.01255 2.20915e-18 0 0 1)
(1.01587 -0.0581165 -1.38505e-18 -0.0581165 1.01089 1.30991e-18 0 0 1)
(1.01753 -0.0580216 4.57868e-18 -0.0580216 1.00923 -6.77321e-19 0 0 1)
(1.01919 -0.0578795 5.31582e-19 -0.0578795 1.00758 -2.25389e-18 0 0 1)
(1.02084 -0.0576901 2.25023e-20 -0.0576901 1.00593 2.55973e-20 0 0 1)
(1.02248 -0.0574537 8.3049e-19 -0.0574537 1.00428 9.72379e-19 0 0 1)
(1.02412 -0.0571704 1.46832e-18 -0.0571704 1.00264 -1.21578e-18 0 0 1)
(1.02575 -0.0568405 -6.73347e-19 -0.0568405 1.00102 2.20255e-18 0 0 1)
(1.02736 -0.0564642 1.50332e-18 -0.0564642 0.999398 -1.17223e-18 0 0 1)
(1.02897 -0.0560419 4.54853e-18 -0.0560419 0.997791 -3.46664e-18 0 0 1)
(1.03056 -0.0555739 -1.52175e-18 -0.0555739 0.996197 4.36014e-18 0 0 1)
(1.03214 -0.0550605 -4.66165e-18 -0.0550605 0.994617 3.31301e-18 0 0 1)
(1.03371 -0.0545022 1.48696e-18 -0.0545022 0.993052 2.14163e-18 0 0 1)
(1.03526 -0.0538995 -1.44962e-18 -0.0538995 0.991504 -2.15283e-18 0 0 1)
(1.03679 -0.0532528 1.4252e-18 -0.0532528 0.989974 2.18322e-18 0 0 1)
(1.0383 -0.0525627 6.92763e-19 -0.0525627 0.988463 1.09507e-18 0 0 1)
(1.03979 -0.0518297 -1.34446e-18 -0.0518297 0.986972 -2.19397e-18 0 0 1)
(1.04126 -0.0510545 3.22845e-19 -0.0510545 0.985503 -3.19179e-18 0 0 1)
(1.0427 -0.0502376 4.59872e-18 -0.0502376 0.984056 3.52297e-19 0 0 1)
(1.04413 -0.0493797 6.25899e-19 -0.0493797 0.982634 1.12704e-18 0 0 1)
(1.04553 -0.0484815 -6.20936e-19 -0.0484815 0.981236 -1.15672e-18 0 0 1)
(1.0469 -0.0475438 5.9346e-19 -0.0475438 0.979865 1.14446e-18 0 0 1)
(1.04824 -0.0465674 -1.16471e-18 -0.0465674 0.978521 -2.32679e-18 0 0 1)
(1.04956 -0.0455529 2.30491e-18 -0.0455529 0.977205 -3.99497e-18 0 0 1)
(1.05084 -0.0445013 4.39336e-21 -0.0445013 0.975919 9.44127e-21 0 0 1)
(1.0521 -0.0434134 -5.22248e-18 -0.0434134 0.974664 2.33077e-18 0 0 1)
(1.05332 -0.0422901 -3.49655e-18 -0.0422901 0.97344 1.52006e-18 0 0 1)
(1.05451 -0.0411323 5.2764e-18 -0.0411323 0.972248 -2.20605e-18 0 0 1)
(1.05567 -0.0399409 4.02934e-18 -0.0399409 0.97109 -1.85112e-19 0 0 1)
(1.05679 -0.038717 -5.34702e-18 -0.038717 0.969967 2.02882e-18 0 0 1)
(1.05788 -0.0374615 -2.68159e-18 -0.0374615 0.968879 -1.78786e-18 0 0 1)
(1.05893 -0.0361755 -8.5299e-19 -0.0361755 0.967828 -2.4457e-18 0 0 1)
(1.05995 -0.0348599 5.8291e-18 -0.0348599 0.966813 -5.95871e-19 0 0 1)
(1.06092 -0.0335159 -7.70929e-19 -0.0335159 0.965837 -2.43161e-18 0 0 1)
(1.06186 -0.0321446 -5.10761e-18 -0.0321446 0.964899 2.87155e-18 0 0 1)
(1.06276 -0.030747 5.84927e-18 -0.030747 0.964001 -3.45683e-19 0 0 1)
(1.06362 -0.0293244 7.16885e-21 -0.0293244 0.963143 2.65019e-20 0 0 1)
(1.06443 -0.0278778 -4.34322e-18 -0.0278778 0.962326 -1.59986e-18 0 0 1)
(1.06521 -0.0264086 3.97815e-21 -0.0264086 0.961551 1.65701e-20 0 0 1)
(1.06594 -0.0249177 5.649e-19 -0.0249177 0.960818 2.51037e-18 0 0 1)
(1.06663 -0.0234066 1.33729e-18 -0.0234066 0.960128 -2.90685e-18 0 0 1)
(1.06728 -0.0218764 -2.1209e-18 -0.0218764 0.959481 -9.14934e-19 0 0 1)
(1.06788 -0.0203283 3.97702e-18 -0.0203283 0.958878 5.6985e-19 0 0 1)
(1.06844 -0.0187636 2.09453e-18 -0.0187636 0.95832 9.7886e-19 0 0 1)
(1.06895 -0.0171837 -3.57984e-18 -0.0171837 0.957807 1.82739e-18 0 0 1)
(1.06942 -0.0155897 -3.48707e-19 -0.0155897 0.957339 -2.55466e-18 0 0 1)
(1.06984 -0.013983 -3.47034e-18 -0.013983 0.956916 3.03794e-18 0 0 1)
(1.07022 -0.0123649 -3.65229e-18 -0.0123649 0.95654 1.69593e-18 0 0 1)
(1.07055 -0.0107367 2.01901e-18 -0.0107367 0.95621 1.12202e-18 0 0 1)
(1.07083 -0.00909977 3.59767e-18 -0.00909977 0.955927 -2.88134e-18 0 0 1)
(1.07107 -0.00745541 1.90294e-18 -0.00745541 0.95569 -1.13913e-19 0 0 1)
(1.07126 -0.00580497 -1.29995e-19 -0.00580497 0.955501 -2.59877e-18 0 0 1)
(1.0714 -0.00414979 0 -0.00414979 0.955359 0 0 0 1)
(1.0715 -0.00249123 0 -0.00249123 0.955264 0 0 0 1)
(1.07154 -0.000830635 0 -0.000830635 0.955217 0 0 0 1)
(0.956462 -0.000810555 -1.29356e-18 -0.000810555 1.06998 -9.23616e-21 0 0 1)
(0.956508 -0.00243101 -6.2453e-20 -0.002431 1.06993 3.67824e-18 0 0 1)
(0.956601 -0.00404947 1.14513e-18 -0.00404947 1.06984 3.72198e-18 0 0 1)
(0.95674 -0.00566464 3.57909e-19 -0.00566464 1.0697 -7.34876e-18 0 0 1)
(0.956924 -0.00727518 2.79812e-18 -0.00727518 1.06952 -3.50629e-18 0 0 1)
(0.957155 -0.00887979 -3.13353e-18 -0.00887979 1.06928 7.1336e-18 0 0 1)
(0.957432 -0.0104772 -9.6341e-21 -0.0104772 1.06901 -8.96815e-22 0 0 1)
(0.957753 -0.012066 2.95897e-18 -0.012066 1.06869 -3.38181e-18 0 0 1)
(0.958121 -0.013645 4.06364e-19 -0.013645 1.06832 -3.65643e-18 0 0 1)
(0.958533 -0.0152128 1.2685e-18 -0.0152128 1.06791 1.73147e-19 0 0 1)
(0.95899 -0.0167683 4.48238e-18 -0.0167683 1.06745 4.39765e-18 0 0 1)
(0.95949 -0.01831 -2.50698e-18 -0.01831 1.06695 -4.15436e-19 0 0 1)
(0.960035 -0.0198369 -6.37088e-19 -0.0198369 1.0664 3.62319e-18 0 0 1)
(0.960623 -0.0213475 -3.20806e-20 -0.0213475 1.06582 -6.26222e-21 0 0 1)
(0.961254 -0.0228408 -4.93682e-19 -0.0228408 1.06519 -3.86274e-18 0 0 1)
(0.961928 -0.0243154 0 -0.0243154 1.06451 0 0 0 1)
(0.962643 -0.0257702 -1.25785e-18 -0.0257702 1.0638 -3.01983e-19 0 0 1)
(0.9634 -0.0272039 0 -0.0272039 1.06304 0 0 0 1)
(0.964197 -0.0286155 4.34261e-18 -0.0286155 1.06224 -6.44721e-18 0 0 1)
(0.965034 -0.0300037 2.46189e-18 -0.0300037 1.06141 7.03821e-19 0 0 1)
(0.96591 -0.0313675 -4.60957e-18 -0.0313675 1.06053 6.29507e-18 0 0 1)
(0.966825 -0.0327057 1.07427e-18 -0.0327057 1.05961 -3.5186e-18 0 0 1)
(0.967778 -0.0340172 -2.42378e-18 -0.0340172 1.05866 -8.0671e-19 0 0 1)
(0.968768 -0.0353009 -3.64437e-18 -0.0353009 1.05767 6.52107e-18 0 0 1)
(0.969794 -0.0365559 1.18452e-18 -0.0365559 1.05665 4.32195e-19 0 0 1)
(0.970856 -0.0377811 2.51271e-18 -0.0377811 1.05558 -2.97919e-18 0 0 1)
(0.971952 -0.0389754 1.18069e-18 -0.0389754 1.05449 4.69419e-19 0 0 1)
(0.973082 -0.040138 2.34773e-18 -0.040138 1.05336 9.72462e-19 0 0 1)
(0.974244 -0.0412678 -1.18793e-18 -0.0412678 1.0522 -5.12052e-19 0 0 1)
(0.975439 -0.0423639 2.09987e-20 -0.0423639 1.051 9.40915e-21 0 0 1)
(0.976664 -0.0434255 -1.53724e-18 -0.0434255 1.04978 3.34219e-18 0 0 1)
(0.977919 -0.0444517 -8.71328e-21 -0.0444517 1.04852 -4.20704e-21 0 0 1)
(0.979203 -0.0454416 2.92287e-20 -0.0454416 1.04724 1.46308e-20 0 0 1)
(0.980514 -0.0463945 -2.83593e-18 -0.0463945 1.04593 2.67334e-18 0 0 1)
(0.981852 -0.0473095 2.86529e-18 -0.0473095 1.04459 -2.63715e-18 0 0 1)
(0.983216 -0.048186 1.80033e-18 -0.048186 1.04322 -3.20814e-18 0 0 1)
(0.984604 -0.0490231 1.81761e-18 -0.0490231 1.04184 -3.19838e-18 0 0 1)
(0.986016 -0.0498203 8.32128e-21 -0.0498203 1.04042 4.93723e-21 0 0 1)
(0.98745 -0.0505768 -6.03059e-18 -0.0505768 1.03899 4.93349e-18 0 0 1)
(0.988905 -0.051292 1.94474e-18 -0.051292 1.03754 -3.12278e-18 0 0 1)
(0.990379 -0.0519655 -9.51939e-20 -0.0519655 1.03606 -4.45533e-18 0 0 1)
(0.991872 -0.0525965 -2.06826e-18 -0.0525965 1.03457 3.04231e-18 0 0 1)
(0.993383 -0.0531847 0 -0.0531847 1.03306 0 0 0 1)
(0.99491 -0.0537295 -6.12527e-20 -0.0537295 1.03153 4.47998e-18 0 0 1)
(0.996452 -0.0542304 -7.78704e-21 -0.0542304 1.02999 -5.743e-21 0 0 1)
(0.998007 -0.0546871 7.31535e-18 -0.0546871 1.02843 9.38019e-19 0 0 1)
(0.999575 -0.0550992 -2.25428e-18 -0.0550992 1.02686 2.90716e-18 0 0 1)
(1.00115 -0.0554664 1.97112e-18 -0.0554664 1.02529 1.58843e-18 0 0 1)
(1.00274 -0.0557884 1.98084e-18 -0.0557884 1.0237 1.64347e-18 0 0 1)
(1.00434 -0.0560648 -1.93967e-18 -0.0560648 1.0221 -1.65664e-18 0 0 1)
(1.00594 -0.0562955 3.3954e-18 -0.0562955 1.0205 -1.91325e-18 0 0 1)
(1.00756 -0.0564803 9.42201e-19 -0.0564803 1.01888 8.52431e-19 0 0 1)
(1.00917 -0.056619 -2.51164e-18 -0.056619 1.01727 2.6879e-18 0 0 1)
(1.01079 -0.0567116 1.82796e-18 -0.0567116 1.01565 1.75128e-18 0 0 1)
(1.01241 -0.0567579 3.49909e-18 -0.0567579 1.01403 -1.71629e-18 0 0 1)
(1.01403 -0.0567579 0 -0.0567579 1.01241 0 0 0 1)
(1.01565 -0.0567116 3.51595e-18 -0.0567116 1.01079 3.6699e-18 0 0 1)
(1.01727 -0.056619 -1.81551e-18 -0.056619 1.00917 3.44865e-18 0 0 1)
(1.01888 -0.0564803 1.69837e-18 -0.0564803 1.00756 1.87723e-18 0 0 1)
(1.0205 -0.0562955 2.77372e-18 -0.0562955 1.00594 -2.41657e-18 0 0 1)
(1.0221 -0.0560648 -1.13636e-18 -0.0560648 1.00434 4.33389e-18 0 0 1)
(1.0237 -0.0557884 -1.64347e-18 -0.0557884 1.00274 -1.98084e-18 0 0 1)
(1.02529 -0.0554664 5.28086e-18 -0.0554664 1.00115 6.90336e-19 0 0 1)
(1.02686 -0.0550992 7.83043e-19 -0.0550992 0.999575 1.00061e-18 0 0 1)
(1.02843 -0.0546871 0 -0.0546871 0.998007 0 0 0 1)
(1.02999 -0.0542304 -1.5083e-18 -0.0542304 0.996452 -2.04513e-18 0 0 1)
(1.03153 -0.0537295 2.97128e-18 -0.0537295 0.99491 4.15163e-18 0 0 1)
(1.03306 -0.0531847 -8.25418e-19 -0.0531847 0.993383 5.26144e-18 0 0 1)
(1.03457 -0.0525965 -1.82563e-20 -0.0525965 0.991872 -2.71125e-20 0 0 1)
(1.03606 -0.0519655 5.18561e-18 -0.0519655 0.990379 1.21389e-18 0 0 1)
(1.03754 -0.051292 -3.11243e-18 -0.051292 0.988905 1.96109e-18 0 0 1)
(1.03899 -0.0505768 6.58822e-19 -0.0505768 0.98745 1.0751e-18 0 0 1)
(1.04042 -0.0498203 4.46878e-18 -0.0498203 0.986016 3.22346e-19 0 0 1)
(1.04184 -0.0490231 0 -0.0490231 0.984604 0 0 0 1)
(1.04322 -0.048186 -7.18311e-19 -0.048186 0.983216 6.28371e-18 0 0 1)
(1.04459 -0.0473095 -4.57635e-21 -0.0473095 0.981852 -8.52508e-21 0 0 1)
(1.04593 -0.0463945 1.50467e-20 -0.0463945 0.980514 2.90168e-20 0 0 1)
(1.04724 -0.0454416 -4.33104e-21 -0.0454416 0.979203 -8.6523e-21 0 0 1)
(1.04852 -0.0444517 3.3199e-18 -0.0444517 0.977919 -1.58481e-18 0 0 1)
(1.04978 -0.0434255 -1.07212e-18 -0.0434255 0.976664 -2.30393e-18 0 0 1)
(1.051 -0.0423639 1.04852e-18 -0.0423639 0.975439 2.34e-18 0 0 1)
(1.0522 -0.0412678 1.51794e-18 -0.0412678 0.974244 3.52154e-18 0 0 1)