7.04944 	0.0503337 	0.5 	6.54589 	0.0467383 	0 	-9.83402e+07 	-0.0505999 	-1.55256e-11 	2.36858e+08 	-4.97851e-09 	-2.92562e+07
7.048 	0.150991 	0.5 	6.54455 	0.140205 	0 	-9.83402e+07 	0.131113 	-2.20392e-09 	2.36858e+08 	2.48925e-09 	-2.92562e+07
7.04512 	0.251617 	0.5 	6.54188 	0.233644 	0 	-9.83402e+07 	-0.0504573 	3.33304e-09 	2.36858e+08 	4.97851e-09 	-2.92562e+07
7.04081 	0.352192 	0.5 	6.53788 	0.327035 	0 	-9.83402e+07 	0.124443 	7.76282e-12 	2.36858e+08 	-2.48925e-09 	-2.92562e+07
7.03507 	0.452696 	0.5 	6.53254 	0.420359 	0 	-9.83402e+07 	-0.351564 	-1.1136e-09 	2.36858e+08 	2.48925e-09 	-2.92562e+07
7.02788 	0.553107 	0.5 	6.52588 	0.513598 	0 	-9.83402e+07 	0.119495 	3.34857e-09 	2.36858e+08 	-8.88962e-19 	-2.92562e+07
7.01927 	0.653405 	0.5 	6.51788 	0.606731 	0 	-9.83402e+07 	-0.0357179 	-1.1136e-09 	2.36858e+08 	-2.48925e-09 	-2.92562e+07
7.00922 	0.75357 	0.5 	6.50855 	0.699741 	0 	-9.83402e+07 	0.248503 	2.25049e-09 	2.36858e+08 	2.48925e-09 	-2.92562e+07
6.99775 	0.853581 	0.5 	6.49789 	0.792609 	0 	-9.83402e+07 	0.0910426 	-4.80512e-18 	2.36858e+08 	4.97851e-09 	-2.92562e+07
6.98485 	0.953418 	0.5 	6.48591 	0.885314 	0 	-9.83402e+07 	0.0144389 	2.23497e-09 	2.36858e+08 	2.48925e-09 	-2.92562e+07
6.97052 	1.05306 	0.5 	6.47261 	0.97784 	0 	-9.83402e+07 	-0.0768973 	2.23497e-09 	2.36858e+08 	-2.48925e-09 	-2.92562e+07
6.95477 	1.15249 	0.5 	6.45799 	1.07017 	0 	-9.83402e+07 	0.0972583 	1.10584e-09 	2.36858e+08 	-9.95701e-09 	-2.92562e+07
6.93761 	1.25168 	0.5 	6.44205 	1.16227 	0 	-9.83402e+07 	-0.399017 	-4.43888e-09 	2.36858e+08 	5.98944e-17 	-2.92562e+07
6.91903 	1.35062 	0.5 	6.42479 	1.25414 	0 	-9.83402e+07 	0.335341 	-1.16794e-09 	2.36858e+08 	5.35998e-17 	-2.92562e+07
6.89903 	1.44928 	0.5 	6.40623 	1.34576 	0 	-9.83402e+07 	-0.219188 	-2.20392e-09 	2.36858e+08 	-2.48925e-09 	-2.92562e+07
6.87764 	1.54765 	0.5 	6.38636 	1.4371 	0 	-9.83402e+07 	0.0494923 	-2.25049e-09 	2.36858e+08 	7.46776e-09 	-2.92562e+07
6.85484 	1.6457 	0.5 	6.36519 	1.52815 	0 	-9.83402e+07 	-0.200958 	-7.76281e-12 	2.36858e+08 	2.48925e-09 	-2.92562e+07
6.83064 	1.74342 	0.5 	6.34272 	1.61888 	0 	-9.83402e+07 	-0.0885961 	1.12137e-09 	2.36858e+08 	6.81656e-19 	-2.92562e+07
6.80504 	1.84078 	0.5 	6.31895 	1.70929 	0 	-9.83402e+07 	0.00848423 	1.1136e-09 	2.36858e+08 	-2.48925e-09 	-2.92562e+07
6.77807 	1.93776 	0.5 	6.2939 	1.79934 	0 	-9.83402e+07 	0.0426336 	7.76282e-12 	2.36858e+08 	-2.48925e-09 	-2.92562e+07
6.7497 	2.03435 	0.5 	6.26757 	1.88903 	0 	-9.83402e+07 	0.146144 	0 	2.36858e+08 	0 	-2.92562e+07
6.71997 	2.13053 	0.5 	6.23995 	1.97834 	0 	-9.83402e+07 	-0.218241 	-1.1136e-09 	2.36858e+08 	2.48925e-09 	-2.92562e+07
6.68886 	2.22627 	0.5 	6.21107 	2.06724 	0 	-9.83402e+07 	0.277611 	-5.55167e-18 	2.36858e+08 	4.97851e-09 	-2.92562e+07
6.65639 	2.32155 	0.5 	6.18091 	2.15572 	0 	-9.83402e+07 	-0.317354 	1.09808e-09 	2.36858e+08 	-2.48925e-09 	-2.92562e+07
6.62256 	2.41637 	0.5 	6.1495 	2.24376 	0 	-9.83402e+07 	0.18934 	-1.10584e-09 	2.36858e+08 	-4.97851e-09 	-2.92562e+07
6.58738 	2.51069 	0.5 	6.11683 	2.33134 	0 	-9.83402e+07 	-0.341992 	2.25826e-09 	2.36858e+08 	4.97851e-09 	-2.92562e+07
6.55086 	2.60449 	0.5 	6.08292 	2.41845 	0 	-9.83402e+07 	0.0138345 	2.19615e-09 	2.36858e+08 	-4.97851e-09 	-2.92562e+07
6.513 	2.69777 	0.5 	6.04777 	2.50507 	0 	-9.83402e+07 	-0.0494801 	-2.19615e-09 	2.36858e+08 	-4.97851e-09 	-2.92562e+07
6.47381 	2.7905 	0.5 	6.01138 	2.59117 	0 	-9.83402e+07 	0.121943 	-1.15242e-09 	2.36858e+08 	6.51034e-17 	-2.92562e+07
6.4333 	2.88266 	0.5 	5.97377 	2.67675 	0 	-9.83402e+07 	-0.206579 	-3.31752e-09 	2.36858e+08 	4.97851e-09 	-2.92562e+07
6.39148 	2.97423 	0.5 	5.93493 	2.76177 	0 	-9.83402e+07 	0.389063 	2.21168e-09 	2.36858e+08 	9.95701e-09 	-2.92562e+07
6.34836 	3.06519 	0.5 	5.89489 	2.84624 	0 	-9.83402e+07 	-0.212115 	-1.55256e-11 	2.36858e+08 	-4.97851e-09 	-2.92562e+07
6.30395 	3.15553 	0.5 	5.85365 	2.93013 	0 	-9.83402e+07 	0.108649 	-1.09808e-09 	2.36858e+08 	-2.48925e-09 	-2.92562e+07
6.25824 	3.24522 	0.5 	5.81121 	3.01342 	0 	-9.83402e+07 	-0.0831887 	-1.12913e-09 	2.36858e+08 	2.48925e-09 	-2.92562e+07
6.21126 	3.33426 	0.5 	5.76759 	3.09609 	0 	-9.83402e+07 	0.0466723 	1.1136e-09 	2.36858e+08 	-2.48925e-09 	-2.92562e+07
6.16302 	3.42261 	0.5 	5.72279 	3.17813 	0 	-9.83402e+07 	-0.153995 	-1.1136e-09 	2.36858e+08 	-2.48925e-09 	-2.92562e+07
6.11352 	3.51027 	0.5 	5.67682 	3.25953 	0 	-9.83402e+07 	0.0205426 	-1.55256e-11 	2.36858e+08 	-4.97851e-09 	-2.92562e+07
6.06277 	3.59721 	0.5 	5.6297 	3.34026 	0 	-9.83402e+07 	-0.124762 	-2.22721e-09 	2.36858e+08 	-4.97851e-09 	-2.92562e+07
6.01079 	3.68341 	0.5 	5.58143 	3.4203 	0 	-9.83402e+07 	0.0255812 	-4.46994e-09 	2.36858e+08 	4.97851e-09 	-2.92562e+07
5.95758 	3.76887 	0.5 	5.53202 	3.49966 	0 	-9.83402e+07 	0.15486 	-2.24273e-09 	2.36858e+08 	9.95701e-09 	-2.92562e+07
5.90315 	3.85356 	0.5 	5.48148 	3.57829 	0 	-9.83402e+07 	-0.263657 	2.21168e-09 	2.36858e+08 	-3.41057e-17 	-2.92562e+07
5.84752 	3.93746 	0.5 	5.42983 	3.6562 	0 	-9.83402e+07 	0.0195488 	3.10513e-11 	2.36858e+08 	-9.4955e-18 	-2.92562e+07
5.7907 	4.02056 	0.5 	5.37707 	3.73336 	0 	-9.83402e+07 	0.232181 	2.22721e-09 	2.36858e+08 	4.97851e-09 	-2.92562e+07
5.7327 	4.10283 	0.5 	5.32321 	3.80976 	0 	-9.83402e+07 	-0.0471815 	-1.55256e-11 	2.36858e+08 	-4.97851e-09 	-2.92562e+07
5.67353 	4.18428 	0.5 	5.26826 	3.88539 	0 	-9.83402e+07 	-0.0693909 	-1.09031e-09 	2.36858e+08 	5.5702e-17 	-2.92562e+07
5.6132 	4.26486 	0.5 	5.21224 	3.96022 	0 	-9.83402e+07 	0.00547434 	2.22721e-09 	2.36858e+08 	4.97851e-09 	-2.92562e+07
5.55173 	4.34458 	0.5 	5.15516 	4.03424 	0 	-9.83402e+07 	0.255235 	0 	2.36858e+08 	0 	-2.92562e+07
5.48912 	4.42342 	0.5 	5.09703 	4.10745 	0 	-9.83402e+07 	-0.202881 	1.10584e-09 	2.36858e+08 	-4.97851e-09 	-2.92562e+07
5.4254 	4.50135 	0.5 	5.03786 	4.17981 	0 	-9.83402e+07 	0.0681534 	-1.37402e-17 	2.36858e+08 	-9.95701e-09 	-2.92562e+07
5.36057 	4.57836 	0.5 	4.97766 	4.25132 	0 	-9.83402e+07 	-0.20969 	-3.34857e-09 	2.36858e+08 	-4.97851e-09 	-2.92562e+07
5.29465 	4.65444 	0.5 	4.91645 	4.32197 	0 	-9.83402e+07 	0.197191 	-3.3641e-09 	2.36858e+08 	7.64145e-17 	-2.92562e+07
5.22764 	4.72957 	0.5 	4.85423 	4.39173 	0 	-9.83402e+07 	-0.0384495 	-3.34081e-09 	2.36858e+08 	7.46776e-09 	-2.92562e+07
5.15958 	4.80374 	0.5 	4.79102 	4.4606 	0 	-9.83402e+07 	0.0371408 	1.09031e-09 	2.36858e+08 	4.97851e-09 	-2.92562e+07
5.09045 	4.87692 	0.5 	4.72684 	4.52856 	0 	-9.83402e+07 	0.162063 	-2.22721e-09 	2.36858e+08 	2.26861e-17 	-2.92562e+07
5.0203 	4.94911 	0.5 	4.66169 	4.59559 	0 	-9.83402e+07 	-0.28457 	-1.12137e-09 	2.36858e+08 	4.97851e-09 	-2.92562e+07
4.94911 	5.0203 	0.5 	4.59559 	4.66169 	0 	-9.83402e+07 	0.389117 	4.46217e-09 	2.36858e+08 	-2.48925e-09 	-2.92562e+07
4.87692 	5.09045 	0.5 	4.52856 	4.72684 	0 	-9.83402e+07 	-0.0667575 	3.10513e-11 	2.36858e+08 	-6.82146e-19 	-2.92562e+07
4.80374 	5.15958 	0.5 	4.4606 	4.79102 	0 	-9.83402e+07 	-0.146407 	-4.65769e-11 	2.36858e+08 	-4.97851e-09 	-2.92562e+07
4.72957 	5.22764 	0.5 	4.39173 	4.85423 	0 	-9.83402e+07 	-0.139921 	-3.30199e-09 	2.36858e+08 	-4.36608e-17 	-2.92562e+07
4.65444 	5.29465 	0.5 	4.32197 	4.91645 	0 	-9.83402e+07 	0.237545 	2.19615e-09 	2.36858e+08 	4.97851e-09 	-2.92562e+07
4.57836 	5.36057 	0.5 	4.25132 	4.97766 	0 	-9.83402e+07 	-0.0734141 	-1.08255e-09 	2.36858e+08 	2.48925e-09 	-2.92562e+07
4.50135 	5.4254 	0.5 	4.17981 	5.03786 	0 	-9.83402e+07 	0.137544 	1.05926e-09 	2.36858e+08 	-4.97851e-09 	-2.92562e+07
4.42342 	5.48912 	0.5 	4.10745 	5.09703 	0 	-9.83402e+07 	-0.321025 	-3.29423e-09 	2.36858e+08 	-2.48925e-09 	-2.92562e+07
4.34458 	5.55173 	0.5 	4.03424 	5.15516 	0 	-9.83402e+07 	-0.0644513 	2.20392e-09 	2.36858e+08 	7.46776e-09 	-2.92562e+07
4.26486 	5.6132 	0.5 	3.96022 	5.21224 	0 	-9.83402e+07 	-0.24012 	1.13689e-09 	2.36858e+08 	5.23811e-18 	-2.92562e+07
4.18428 	5.67353 	0.5 	3.88539 	5.26826 	0 	-9.83402e+07 	0.343099 	-1.55256e-11 	2.36858e+08 	1.4603e-17 	-2.92562e+07
4.10283 	5.7327 	0.5 	3.80976 	5.32321 	0 	-9.83402e+07 	-0.383592 	1.12913e-09 	2.36858e+08 	-2.48925e-09 	-2.92562e+07
4.02056 	5.7907 	0.5 	3.73336 	5.37707 	0 	-9.83402e+07 	0.339043 	-1.12913e-09 	2.36858e+08 	-2.48925e-09 	-2.92562e+07
3.93746 	5.84752 	0.5 	3.6562 	5.42983 	0 	-9.83402e+07 	-0.201723 	-7.76282e-12 	2.36858e+08 	-7.46776e-09 	-2.92562e+07
3.85356 	5.90315 	0.5 	3.57829 	5.48148 	0 	-9.83402e+07 	0.335977 	-4.43888e-09 	2.36858e+08 	4.97851e-09 	-2.92562e+07
3.76887 	5.95758 	0.5 	3.49966 	5.53202 	0 	-9.83402e+07 	-0.134306 	1.07479e-09 	2.36858e+08 	4.97851e-09 	-2.92562e+07
3.68341 	6.01079 	0.5 	3.4203 	5.58143 	0 	-9.83402e+07 	-0.0403772 	1.55256e-11 	2.36858e+08 	-4.97851e-09 	-2.92562e+07
3.59721 	6.06277 	0.5 	3.34026 	5.6297 	0 	-9.83402e+07 	-0.052313 	2.25826e-09 	2.36858e+08 	4.97851e-09 	-2.92562e+07
3.51027 	6.11352 	0.5 	3.25953 	5.67682 	0 	-9.83402e+07 	-0.0515278 	-2.32884e-11 	2.36858e+08 	2.48925e-09 	-2.92562e+07
3.42261 	6.16302 	0.5 	3.17813 	5.72279 	0 	-9.83402e+07 	-0.0223367 	-1.66709e-18 	2.36858e+08 	-4.97851e-09 	-2.92562e+07
3.33426 	6.21126 	0.5 	3.09609 	5.76759 	0 	-9.83402e+07 	-0.143079 	-1.1136e-09 	2.36858e+08 	-2.48925e-09 	-2.92562e+07
3.24523 	6.25824 	0.5 	3.01342 	5.81121 	0 	-9.83402e+07 	0.0577116 	-1.12137e-09 	2.36858e+08 	9.70613e-18 	-2.92562e+07
3.15553 	6.30395 	0.5 	2.93013 	5.85365 	0 	-9.83402e+07 	0.216003 	7.76281e-12 	2.36858e+08 	2.48925e-09 	-2.92562e+07
3.06519 	6.34836 	0.5 	2.84624 	5.89489 	0 	-9.83402e+07 	-0.0938971 	3.34857e-09 	2.36858e+08 	-5.1577e-17 	-2.92562e+07
2.97423 	6.39148 	0.5 	2.76177 	5.93493 	0 	-9.83402e+07 	0.127668 	1.55256e-11 	2.36858e+08 	-6.75002e-18 	-2.92562e+07
2.88266 	6.4333 	0.5 	2.67675 	5.97377 	0 	-9.83402e+07 	-0.120618 	1.09031e-09 	2.36858e+08 	-4.97851e-09 	-2.92562e+07
2.7905 	6.47381 	0.5 	2.59117 	6.01138 	0 	-9.83402e+07 	0.087868 	-2.18063e-09 	2.36858e+08 	4.97851e-09 	-2.92562e+07
2.69777 	6.513 	0.5 	2.50507 	6.04777 	0 	-9.83402e+07 	-0.144923 	3.28647e-09 	2.36858e+08 	-6.02207e-17 	-2.92562e+07
2.60449 	6.55086 	0.5 	2.41845 	6.08292 	0 	-9.83402e+07 	0.130332 	-3.30976e-09 	2.36858e+08 	-7.46776e-09 	-2.92562e+07
2.51069 	6.58738 	0.5 	2.33134 	6.11683 	0 	-9.83402e+07 	0.0181005 	-1.55256e-11 	2.36858e+08 	4.97851e-09 	-2.92562e+07
2.41637 	6.62256 	0.5 	2.24376 	6.1495 	0 	-9.83402e+07 	-0.116445 	7.76282e-12 	2.36858e+08 	2.48925e-09 	-2.92562e+07
2.32155 	6.65639 	0.5 	2.15572 	6.18091 	0 	-9.83402e+07 	0.0197072 	1.12137e-09 	2.36858e+08 	4.97851e-09 	-2.92562e+07
2.22627 	6.68886 	0.5 	2.06724 	6.21107 	0 	-9.83402e+07 	-0.0600198 	1.08255e-09 	2.36858e+08 	-7.46776e-09 	-2.92562e+07
2.13053 	6.71997 	0.5 	1.97834 	6.23995 	0 	-9.83402e+07 	0.099384 	6.21025e-11 	2.36858e+08 	-5.78884e-17 	-2.92562e+07
2.03435 	6.7497 	0.5 	1.88903 	6.26757 	0 	-9.83402e+07 	0.135876 	1.07479e-09 	2.36858e+08 	4.97851e-09 	-2.92562e+07
1.93776 	6.77807 	0.5 	1.79934 	6.2939 	0 	-9.83402e+07 	-0.1253 	-1.09031e-09 	2.36858e+08 	2.89938e-17 	-2.92562e+07
1.84078 	6.80504 	0.5 	1.70929 	6.31895 	0 	-9.83402e+07 	0.246335 	2.21168e-09 	2.36858e+08 	1.93002e-17 	-2.92562e+07
1.74342 	6.83064 	0.5 	1.61888 	6.34272 	0 	-9.83402e+07 	-0.101025 	1.28747e-18 	2.36858e+08 	-9.95701e-09 	-2.92562e+07
1.6457 	6.85484 	0.5 	1.52815 	6.36519 	0 	-9.83402e+07 	0.123942 	-2.19615e-09 	2.36858e+08 	4.97851e-09 	-2.92562e+07
1.54765 	6.87764 	0.5 	1.4371 	6.38636 	0 	-9.83402e+07 	-0.1205 	-3.10513e-11 	2.36858e+08 	9.95701e-09 	-2.92562e+07
1.44928 	6.89903 	0.5 	1.34576 	6.40623 	0 	-9.83402e+07 	-0.0419853 	4.46994e-09 	2.36858e+08 	-4.97851e-09 	-2.92562e+07
1.35062 	6.91903 	0.5 	1.25414 	6.42479 	0 	-9.83402e+07 	-0.0464103 	-1.09808e-09 	2.36858e+08 	-2.48925e-09 	-2.92562e+07
1.25168 	6.93761 	0.5 	1.16227 	6.44205 	0 	-9.83402e+07 	-0.171641 	6.50106e-18 	2.36858e+08 	4.97851e-09 	-2.92562e+07
1.15249 	6.95477 	0.5 	1.07017 	6.45799 	0 	-9.83402e+07 	0.303714 	1.09808e-09 	2.36858e+08 	-2.48925e-09 	-2.92562e+07
1.05306 	6.97052 	0.5 	0.97784 	6.47261 	0 	-9.83402e+07 	-0.0795001 	-1.12137e-09 	2.36858e+08 	-9.95701e-09 	-2.92562e+07
0.953418 	6.98485 	0.5 	0.885314 	6.48591 	0 	-9.83402e+07 	0.0452767 	3.88141e-11 	2.36858e+08 	2.48925e-09 	-2.92562e+07
0.853581 	6.99775 	0.5 	0.792609 	6.49789 	0 	-9.83402e+07 	-0.157595 	-1.14465e-09 	2.36858e+08 	7.46776e-09 	-2.92562e+07
0.75357 	7.00922 	0.5 	0.699741 	6.50855 	0 	-9.83402e+07 	0.137493 	0 	2.36858e+08 	0 	-2.92562e+07
0.653405 	7.01927 	0.5 	0.606731 	6.51788 	0 	-9.83402e+07 	-0.0715846 	-7.76282e-12 	2.36858e+08 	-2.48925e-09 	-2.92562e+07
0.553107 	7.02788 	0.5 	0.513598 	6.52588 	0 	-9.83402e+07 	-0.0491854 	-7.76283e-12 	2.36858e+08 	-7.46776e-09 	-2.92562e+07
0.452696 	7.03507 	0.5 	0.420359 	6.53254 	0 	-9.83402e+07 	-0.102838 	-2.20392e-09 	2.36858e+08 	2.48925e-09 	-2.92562e+07
0.352192 	7.04081 	0.5 	0.327035 	6.53788 	0 	-9.83402e+07 	0.265697 	1.09031e-09 	2.36858e+08 	4.97851e-09 	-2.92562e+07
0.251617 	7.04512 	0.5 	0.233644 	6.54188 	0 	-9.83402e+07 	-0.0217117 	-7.76281e-12 	2.36858e+08 	-7.46776e-09 	-2.92562e+07
0.150991 	7.048 	0.5 	0.140205 	6.54455 	0 	-9.83402e+07 	-0.0714191 	-2.21168e-09 	2.36858e+08 	-1.01766e-17 	-2.92562e+07
0.0503337 	7.04944 	0.5 	0.0467383 	6.54589 	0 	-9.83402e+07 	0.0349816 	-1.55256e-11 	2.36858e+08 	4.97851e-09 	-2.92562e+07
7.14879 	0.0510431 	0.5 	6.52011 	0.0465543 	0 	-9.70209e+07 	-0.0445118 	-1.1244e-09 	2.33491e+08 	1.87314e-18 	-2.85829e+07
7.14733 	0.153119 	0.5 	6.51878 	0.139653 	0 	-9.70209e+07 	0.0778292 	-2.24321e-09 	2.33491e+08 	-4.86221e-09 	-2.85829e+07
7.14442 	0.255163 	0.5 	6.51612 	0.232724 	0 	-9.70209e+07 	-0.074581 	-8.29851e-13 	2.33491e+08 	1.60554e-17 	-2.85829e+07
7.14004 	0.357156 	0.5 	6.51214 	0.325747 	0 	-9.70209e+07 	0.0978404 	-7.56949e-12 	2.33491e+08 	7.29331e-09 	-2.85829e+07
7.13422 	0.459076 	0.5 	6.50682 	0.418704 	0 	-9.70209e+07 	-0.180443 	-2.26872e-09 	2.33491e+08 	-4.86221e-09 	-2.85829e+07
7.12693 	0.560902 	0.5 	6.50018 	0.511575 	0 	-9.70209e+07 	0.115333 	1.13871e-09 	2.33491e+08 	-8.5838e-17 	-2.85829e+07
7.1182 	0.662614 	0.5 	6.49221 	0.604342 	0 	-9.70209e+07 	-0.049514 	-3.50477e-11 	2.33491e+08 	3.39058e-17 	-2.85829e+07
7.10801 	0.76419 	0.5 	6.48292 	0.696986 	0 	-9.70209e+07 	0.131706 	2.46784e-11 	2.33491e+08 	2.6706e-17 	-2.85829e+07
7.09637 	0.865611 	0.5 	6.47231 	0.789488 	0 	-9.70209e+07 	0.0308728 	-1.15468e-09 	2.33491e+08 	4.86221e-09 	-2.85829e+07
7.08329 	0.966855 	0.5 	6.46037 	0.881828 	0 	-9.70209e+07 	0.0404882 	1.11124e-09 	2.33491e+08 	-2.4311e-09 	-2.85829e+07
7.06876 	1.0679 	0.5 	6.44712 	0.973989 	0 	-9.70209e+07 	-0.0703575 	-2.07385e-11 	2.33491e+08 	-1.01147e-17 	-2.85829e+07
7.05279 	1.16873 	0.5 	6.43256 	1.06595 	0 	-9.70209e+07 	0.0903019 	3.37798e-09 	2.33491e+08 	4.86221e-09 	-2.85829e+07
7.03538 	1.26932 	0.5 	6.41668 	1.1577 	0 	-9.70209e+07 	-0.246732 	-2.22247e-09 	2.33491e+08 	4.86221e-09 	-2.85829e+07
7.01654 	1.36965 	0.5 	6.39949 	1.24921 	0 	-9.70209e+07 	0.179308 	-1.12917e-09 	2.33491e+08 	-4.86221e-09 	-2.85829e+07
6.99627 	1.46971 	0.5 	6.381 	1.34046 	0 	-9.70209e+07 	-0.196222 	-3.3222e-09 	2.33491e+08 	4.69292e-17 	-2.85829e+07
6.97457 	1.56946 	0.5 	6.36121 	1.43144 	0 	-9.70209e+07 	0.0520802 	-1.96994e-12 	2.33491e+08 	2.4311e-09 	-2.85829e+07
6.95144 	1.66889 	0.5 	6.34012 	1.52213 	0 	-9.70209e+07 	-0.117187 	-5.27633e-18 	2.33491e+08 	-4.86221e-09 	-2.85829e+07
6.9269 	1.76799 	0.5 	6.31774 	1.61251 	0 	-9.70209e+07 	-0.0364799 	1.1216e-09 	2.33491e+08 	-2.4311e-09 	-2.85829e+07
6.90095 	1.86672 	0.5 	6.29407 	1.70256 	0 	-9.70209e+07 	-0.00609358 	-1.13477e-09 	2.33491e+08 	5.65007e-18 	-2.85829e+07
6.87359 	1.96507 	0.5 	6.26912 	1.79226 	0 	-9.70209e+07 	-0.0185699 	-2.24881e-09 	2.33491e+08 	1.66896e-17 	-2.85829e+07
6.84483 	2.06302 	0.5 	6.24289 	1.8816 	0 	-9.70209e+07 	0.104965 	7.56949e-12 	2.33491e+08 	2.4311e-09 	-2.85829e+07
6.81468 	2.16055 	0.5 	6.21538 	1.97055 	0 	-9.70209e+07 	-0.14096 	-2.24601e-09 	2.33491e+08 	2.4311e-09 	-2.85829e+07
6.78313 	2.25764 	0.5 	6.18661 	2.0591 	0 	-9.70209e+07 	0.177567 	1.1244e-09 	2.33491e+08 	-1.50311e-17 	-2.85829e+07
6.7502 	2.35427 	0.5 	6.15658 	2.14723 	0 	-9.70209e+07 	-0.224858 	1.11403e-09 	2.33491e+08 	2.72565e-18 	-2.85829e+07
6.71589 	2.45042 	0.5 	6.12529 	2.23493 	0 	-9.70209e+07 	0.136799 	-1.13674e-09 	2.33491e+08 	-7.29331e-09 	-2.85829e+07
6.68022 	2.54607 	0.5 	6.09275 	2.32216 	0 	-9.70209e+07 	-0.209547 	-1.1073e-09 	2.33491e+08 	-2.4311e-09 	-2.85829e+07
6.64318 	2.6412 	0.5 	6.05897 	2.40893 	0 	-9.70209e+07 	0.0404527 	1.08853e-09 	2.33491e+08 	4.86221e-09 	-2.85829e+07
6.60479 	2.73579 	0.5 	6.02395 	2.4952 	0 	-9.70209e+07 	-0.0828498 	-4.46931e-09 	2.33491e+08 	2.4311e-09 	-2.85829e+07
6.56505 	2.82983 	0.5 	5.98771 	2.58097 	0 	-9.70209e+07 	0.0975458 	-1.1216e-09 	2.33491e+08 	2.4311e-09 	-2.85829e+07
6.52397 	2.92328 	0.5 	5.95024 	2.66621 	0 	-9.70209e+07 	-0.137239 	2.35383e-11 	2.33491e+08 	-2.4311e-09 	-2.85829e+07
6.48156 	3.01614 	0.5 	5.91156 	2.7509 	0 	-9.70209e+07 	0.220639 	2.25078e-09 	2.33491e+08 	2.4311e-09 	-2.85829e+07
6.43783 	3.10839 	0.5 	5.87168 	2.83503 	0 	-9.70209e+07 	-0.137904 	2.2261e-09 	2.33491e+08 	2.4311e-09 	-2.85829e+07
6.39279 	3.2 	0.5 	5.8306 	2.91859 	0 	-9.70209e+07 	0.10518 	2.55083e-11 	2.33491e+08 	6.41542e-18 	-2.85829e+07
6.34644 	3.29096 	0.5 	5.78833 	3.00155 	0 	-9.70209e+07 	-0.0696896 	-1.23392e-11 	2.33491e+08 	-2.4311e-09 	-2.85829e+07
6.2988 	3.38125 	0.5 	5.74488 	3.0839 	0 	-9.70209e+07 	0.032675 	1.23392e-11 	2.33491e+08 	-2.4311e-09 	-2.85829e+07
6.24988 	3.47085 	0.5 	5.70026 	3.16562 	0 	-9.70209e+07 	-0.0954237 	-4.76971e-12 	2.33491e+08 	3.13192e-19 	-2.85829e+07
6.19968 	3.55974 	0.5 	5.65447 	3.24669 	0 	-9.70209e+07 	0.0260584 	7.56949e-12 	2.33491e+08 	-2.4311e-09 	-2.85829e+07
6.14822 	3.64791 	0.5 	5.60753 	3.3271 	0 	-9.70209e+07 	-0.0697271 	-2.21293e-09 	2.33491e+08 	4.86221e-09 	-2.85829e+07
6.0955 	3.73533 	0.5 	5.55945 	3.40684 	0 	-9.70209e+07 	-0.0153175 	-2.22247e-09 	2.33491e+08 	4.86221e-09 	-2.85829e+07
6.04154 	3.82199 	0.5 	5.51024 	3.48588 	0 	-9.70209e+07 	0.0790337 	5.59958e-12 	2.33491e+08 	-4.86221e-09 	-2.85829e+07
5.98635 	3.90787 	0.5 	5.4599 	3.5642 	0 	-9.70209e+07 	-0.0991317 	4.49202e-09 	2.33491e+08 	-4.86221e-09 	-2.85829e+07
5.92994 	3.99295 	0.5 	5.40845 	3.6418 	0 	-9.70209e+07 	0.0350473 	0 	2.33491e+08 	0 	-2.85829e+07
5.87231 	4.07722 	0.5 	5.35589 	3.71866 	0 	-9.70209e+07 	0.0849837 	2.24321e-09 	2.33491e+08 	4.86221e-09 	-2.85829e+07
5.81349 	4.16066 	0.5 	5.30225 	3.79476 	0 	-9.70209e+07 	-0.0109156 	-2.27085e-11 	2.33491e+08 	2.4311e-09 	-2.85829e+07
5.75349 	4.24325 	0.5 	5.24752 	3.87009 	0 	-9.70209e+07 	0.0270659 	1.03693e-11 	2.33491e+08 	-4.86221e-09 	-2.85829e+07
5.69231 	4.32497 	0.5 	5.19172 	3.94463 	0 	-9.70209e+07 	-0.0121914 	-1.12243e-09 	2.33491e+08 	2.4311e-09 	-2.85829e+07
5.62997 	4.40581 	0.5 	5.13486 	4.01836 	0 	-9.70209e+07 	0.130939 	2.2261e-09 	2.33491e+08 	2.4311e-09 	-2.85829e+07
5.56649 	4.48576 	0.5 	5.07696 	4.09127 	0 	-9.70209e+07 	-0.10977 	-1.03693e-11 	2.33491e+08 	-4.86221e-09 	-2.85829e+07
5.50186 	4.56479 	0.5 	5.01802 	4.16335 	0 	-9.70209e+07 	0.104834 	-2.23367e-09 	2.33491e+08 	3.53071e-17 	-2.85829e+07
5.43612 	4.64289 	0.5 	4.95806 	4.23458 	0 	-9.70209e+07 	-0.124032 	2.35384e-11 	2.33491e+08 	2.4311e-09 	-2.85829e+07
5.36927 	4.72004 	0.5 	4.89709 	4.30495 	0 	-9.70209e+07 	0.123025 	-3.3421e-09 	2.33491e+08 	6.77102e-17 	-2.85829e+07
5.30132 	4.79623 	0.5 	4.83511 	4.37444 	0 	-9.70209e+07 	-0.0174835 	-3.34967e-09 	2.33491e+08 	-2.4311e-09 	-2.85829e+07
5.23229 	4.87144 	0.5 	4.77216 	4.44304 	0 	-9.70209e+07 	0.0195077 	-1.11207e-09 	2.33491e+08 	2.4311e-09 	-2.85829e+07
5.1622 	4.94566 	0.5 	4.70823 	4.51073 	0 	-9.70209e+07 	0.140807 	-2.24321e-09 	2.33491e+08 	4.86221e-09 	-2.85829e+07
5.09105 	5.01886 	0.5 	4.64333 	4.5775 	0 	-9.70209e+07 	-0.142999 	-1.99087e-11 	2.33491e+08 	-9.72442e-09 	-2.85829e+07
5.01886 	5.09105 	0.5 	4.5775 	4.64333 	0 	-9.70209e+07 	0.21183 	2.25275e-09 	2.33491e+08 	-4.86221e-09 	-2.85829e+07
4.94566 	5.1622 	0.5 	4.51073 	4.70823 	0 	-9.70209e+07 	-0.0687822 	-4.49762e-09 	2.33491e+08 	9.72442e-09 	-2.85829e+07
4.87144 	5.23229 	0.5 	4.44304 	4.77216 	0 	-9.70209e+07 	0.00611695 	1.1017e-09 	2.33491e+08 	2.4311e-09 	-2.85829e+07
4.79623 	5.30132 	0.5 	4.37444 	4.83511 	0 	-9.70209e+07 	-0.0699289 	-4.46651e-09 	2.33491e+08 	-4.86221e-09 	-2.85829e+07
4.72004 	5.36927 	0.5 	4.30495 	4.89709 	0 	-9.70209e+07 	0.115386 	2.24321e-09 	2.33491e+08 	-3.89438e-17 	-2.85829e+07
4.64289 	5.43612 	0.5 	4.23458 	4.95806 	0 	-9.70209e+07 	-0.0885489 	-2.23844e-09 	2.33491e+08 	4.86221e-09 	-2.85829e+07
4.56479 	5.50186 	0.5 	4.16335 	5.01802 	0 	-9.70209e+07 	0.0872684 	3.3477e-09 	2.33491e+08 	-1.01551e-16 	-2.85829e+07
4.48576 	5.56649 	0.5 	4.09127 	5.07696 	0 	-9.70209e+07 	-0.18062 	-3.3421e-09 	2.33491e+08 	-4.86221e-09 	-2.85829e+07
4.40581 	5.62997 	0.5 	4.01836 	5.13486 	0 	-9.70209e+07 	0.0264994 	1.11124e-09 	2.33491e+08 	-2.4311e-09 	-2.85829e+07
4.32497 	5.69231 	0.5 	3.94463 	5.19172 	0 	-9.70209e+07 	-0.195268 	1.12917e-09 	2.33491e+08 	4.86221e-09 	-2.85829e+07
4.24325 	5.75349 	0.5 	3.87009 	5.24752 	0 	-9.70209e+07 	0.205756 	4.46734e-09 	2.33491e+08 	-1.45787e-16 	-2.85829e+07
4.16066 	5.81349 	0.5 	3.79476 	5.30225 	0 	-9.70209e+07 	-0.241142 	-1.1045e-09 	2.33491e+08 	-3.76298e-17 	-2.85829e+07
4.07722 	5.87231 	0.5 	3.71866 	5.35589 	0 	-9.70209e+07 	0.252259 	-1.99087e-11 	2.33491e+08 	-8.06824e-19 	-2.85829e+07
3.99295 	5.92994 	0.5 	3.6418 	5.40845 	0 	-9.70209e+07 	-0.159985 	-2.21853e-09 	2.33491e+08 	6.88792e-17 	-2.85829e+07
3.90787 	5.98635 	0.5 	3.5642 	5.4599 	0 	-9.70209e+07 	0.204726 	-3.35444e-09 	2.33491e+08 	2.4311e-09 	-2.85829e+07
3.82199 	6.04154 	0.5 	3.48588 	5.51024 	0 	-9.70209e+07 	-0.082672 	-1.03693e-11 	2.33491e+08 	-4.86221e-09 	-2.85829e+07
3.73533 	6.0955 	0.5 	3.40684 	5.55945 	0 	-9.70209e+07 	0.0248362 	-1.13197e-09 	2.33491e+08 	-7.29331e-09 	-2.85829e+07
3.64791 	6.14822 	0.5 	3.3271 	5.60753 	0 	-9.70209e+07 	-0.0301535 	-2.22413e-09 	2.33491e+08 	4.86221e-09 	-2.85829e+07
3.55974 	6.19968 	0.5 	3.24669 	5.65447 	0 	-9.70209e+07 	-0.0395891 	2.21096e-09 	2.33491e+08 	7.29331e-09 	-2.85829e+07
3.47085 	6.24988 	0.5 	3.16562 	5.70025 	0 	-9.70209e+07 	0.00156213 	1.13197e-09 	2.33491e+08 	-2.4311e-09 	-2.85829e+07
3.38125 	6.2988 	0.5 	3.0839 	5.74488 	0 	-9.70209e+07 	-0.0411761 	1.03693e-11 	2.33491e+08 	6.00711e-18 	-2.85829e+07
3.29096 	6.34644 	0.5 	3.00155 	5.78833 	0 	-9.70209e+07 	0.025523 	2.7998e-12 	2.33491e+08 	-2.4311e-09 	-2.85829e+07
3.2 	6.39279 	0.5 	2.91859 	5.8306 	0 	-9.70209e+07 	0.101165 	-7.56949e-12 	2.33491e+08 	-7.29331e-09 	-2.85829e+07
3.10839 	6.43783 	0.5 	2.83503 	5.87168 	0 	-9.70209e+07 	-0.058317 	1.12357e-09 	2.33491e+08 	7.84383e-18 	-2.85829e+07
3.01614 	6.48156 	0.5 	2.7509 	5.91156 	0 	-9.70209e+07 	0.108862 	2.23367e-09 	2.33491e+08 	4.86221e-09 	-2.85829e+07
2.92328 	6.52397 	0.5 	2.66621 	5.95024 	0 	-9.70209e+07 	-0.0797139 	1.11403e-09 	2.33491e+08 	-1.10609e-17 	-2.85829e+07
2.82983 	6.56505 	0.5 	2.58097 	5.98771 	0 	-9.70209e+07 	0.0749531 	-3.35247e-09 	2.33491e+08 	3.60511e-17 	-2.85829e+07
2.73579 	6.60479 	0.5 	2.4952 	6.02395 	0 	-9.70209e+07 	-0.0830136 	1.10087e-09 	2.33491e+08 	2.4311e-09 	-2.85829e+07
2.6412 	6.64318 	0.5 	2.40893 	6.05897 	0 	-9.70209e+07 	0.07613 	1.59688e-11 	2.33491e+08 	-6.7934e-18 	-2.85829e+07
2.54607 	6.68022 	0.5 	2.32216 	6.09275 	0 	-9.70209e+07 	-0.00397445 	7.56949e-12 	2.33491e+08 	-2.4311e-09 	-2.85829e+07
2.45042 	6.71589 	0.5 	2.23493 	6.12529 	0 	-9.70209e+07 	-0.0458711 	-1.1244e-09 	2.33491e+08 	4.82726e-18 	-2.85829e+07
2.35427 	6.7502 	0.5 	2.14723 	6.15658 	0 	-9.70209e+07 	0.0436304 	-2.79978e-12 	2.33491e+08 	2.4311e-09 	-2.85829e+07
2.25764 	6.78313 	0.5 	2.0591 	6.18661 	0 	-9.70209e+07 	-0.0248445 	1.08376e-09 	2.33491e+08 	-4.86221e-09 	-2.85829e+07
2.16055 	6.81468 	0.5 	1.97055 	6.21538 	0 	-9.70209e+07 	0.0408029 	4.54169e-11 	2.33491e+08 	-3.21946e-17 	-2.85829e+07
2.06302 	6.84483 	0.5 	1.8816 	6.24289 	0 	-9.70209e+07 	0.0942115 	1.09133e-09 	2.33491e+08 	7.29331e-09 	-2.85829e+07
1.96507 	6.87359 	0.5 	1.79226 	6.26912 	0 	-9.70209e+07 	-0.0617581 	-1.1216e-09 	2.33491e+08 	-2.4311e-09 	-2.85829e+07
1.86672 	6.90095 	0.5 	1.70256 	6.29407 	0 	-9.70209e+07 	0.155651 	4.48445e-09 	2.33491e+08 	-2.4311e-09 	-2.85829e+07
1.76799 	6.9269 	0.5 	1.61251 	6.31774 	0 	-9.70209e+07 	-0.0834926 	-1.1244e-09 	2.33491e+08 	6.15345e-18 	-2.85829e+07
1.66889 	6.95144 	0.5 	1.52213 	6.34012 	0 	-9.70209e+07 	0.089936 	-2.21293e-09 	2.33491e+08 	4.86221e-09 	-2.85829e+07
1.56946 	6.97457 	0.5 	1.43144 	6.36121 	0 	-9.70209e+07 	-0.0728218 	1.07899e-09 	2.33491e+08 	-4.86221e-09 	-2.85829e+07
1.46971 	6.99627 	0.5 	1.34046 	6.381 	0 	-9.70209e+07 	-0.0163279 	2.26032e-09 	2.33491e+08 	-2.4311e-09 	-2.85829e+07
1.36965 	7.01654 	0.5 	1.24921 	6.39949 	0 	-9.70209e+07 	0.00641811 	-1.23392e-11 	2.33491e+08 	7.29331e-09 	-2.85829e+07
1.26932 	7.03538 	0.5 	1.1577 	6.41668 	0 	-9.70209e+07 	-0.100787 	0 	2.33491e+08 	0 	-2.85829e+07
1.16873 	7.05279 	0.5 	1.06595 	6.43256 	0 	-9.70209e+07 	0.146339 	4.48725e-09 	2.33491e+08 	-2.42894e-17 	-2.85829e+07
1.0679 	7.06876 	0.5 	0.973989 	6.44712 	0 	-9.70209e+07 	-0.0785899 	-1.23392e-11 	2.33491e+08 	-7.29331e-09 	-2.85829e+07
0.966855 	7.08329 	0.5 	0.881828 	6.46037 	0 	-9.70209e+07 	0.0685806 	-2.19582e-09 	2.33491e+08 	2.4311e-09 	-2.85829e+07
0.865611 	7.09637 	0.5 	0.789488 	6.47231 	0 	-9.70209e+07 	-0.0902921 	1.09693e-09 	2.33491e+08 	7.29331e-09 	-2.85829e+07
0.76419 	7.10801 	0.5 	0.696986 	6.48292 	0 	-9.70209e+07 	0.0647422 	-1.11683e-09 	2.33491e+08 	-2.4311e-09 	-2.85829e+07
0.662614 	7.1182 	0.5 	0.604342 	6.49221 	0 	-9.70209e+07 	-0.0567193 	-1.13197e-09 	2.33491e+08 	-2.4311e-09 	-2.85829e+07
0.560902 	7.12693 	0.5 	0.511575 	6.50018 	0 	-9.70209e+07 	0.0220757 	-1.11683e-09 	2.33491e+08 	-2.4311e-09 	-2.85829e+07
0.459076 	7.13422 	0.5 	0.418704 	6.50682 	0 	-9.70209e+07 	-0.0613921 	-2.22807e-09 	2.33491e+08 	-7.8023e-18 	-2.85829e+07
0.357156 	7.14004 	0.5 	0.325747 	6.51214 	0 	-9.70209e+07 	0.117224 	1.11403e-09 	2.33491e+08 	-1.60781e-17 	-2.85829e+07
0.255163 	7.14442 	0.5 	0.232724 	6.51612 	0 	-9.70209e+07 	-0.0219729 	0 	2.33491e+08 	0 	-2.85829e+07
0.153119 	7.14733 	0.5 	0.139653 	6.51878 	0 	-9.70209e+07 	-0.00862448 	-2.22807e-09 	2.33491e+08 	-6.7058e-18 	-2.85829e+07
0.0510431 	7.14879 	0.5 	0.0465543 	6.52011 	0 	-9.70209e+07 	0.0284619 	0 	2.33491e+08 	0 	-2.85829e+07
7.24814 	0.0517525 	0.5 	6.49498 	0.0463748 	0 	-9.49611e+07 	-0.0282081 	2.84671e-12 	2.29766e+08 	-2.36854e-09 	-2.76924e+07
7.24666 	0.155247 	0.5 	6.49366 	0.139115 	0 	-9.49611e+07 	0.0171966 	1.46391e-11 	2.29766e+08 	-1.16204e-17 	-2.76924e+07
7.24371 	0.25871 	0.5 	6.49101 	0.231827 	0 	-9.49611e+07 	-0.056419 	-4.45468e-09 	2.29766e+08 	-1.10737e-17 	-2.76924e+07
7.23927 	0.36212 	0.5 	6.48703 	0.324491 	0 	-9.49611e+07 	0.0427368 	-2.21331e-09 	2.29766e+08 	2.36854e-09 	-2.76924e+07
7.23337 	0.465456 	0.5 	6.48174 	0.41709 	0 	-9.49611e+07 	-0.00757774 	3.33379e-09 	2.29766e+08 	-5.98978e-18 	-2.76924e+07
7.22598 	0.568697 	0.5 	6.47512 	0.509603 	0 	-9.49611e+07 	0.0632645 	-2.2003e-09 	2.29766e+08 	-4.73708e-09 	-2.76924e+07
7.21712 	0.671822 	0.5 	6.46719 	0.602013 	0 	-9.49611e+07 	-0.0334521 	-1.1278e-09 	2.29766e+08 	7.29534e-18 	-2.76924e+07
7.2068 	0.774811 	0.5 	6.45793 	0.694299 	0 	-9.49611e+07 	0.0204043 	-2.2003e-09 	2.29766e+08 	4.73708e-09 	-2.76924e+07
7.195 	0.877641 	0.5 	6.44736 	0.786444 	0 	-9.49611e+07 	-0.0108892 	1.10584e-09 	2.29766e+08 	2.36854e-09 	-2.76924e+07
7.18173 	0.980292 	0.5 	6.43547 	0.878429 	0 	-9.49611e+07 	0.040714 	2.26007e-09 	2.29766e+08 	1.99665e-18 	-2.76924e+07
7.167 	1.08274 	0.5 	6.42227 	0.970235 	0 	-9.49611e+07 	-0.0353407 	-1.62652e-11 	2.29766e+08 	-7.10562e-09 	-2.76924e+07
7.15081 	1.18497 	0.5 	6.40776 	1.06184 	0 	-9.49611e+07 	0.0434747 	2.35847e-11 	2.29766e+08 	-4.73708e-09 	-2.76924e+07
7.13316 	1.28696 	0.5 	6.39195 	1.15323 	0 	-9.49611e+07 	-0.0670319 	2.21494e-09 	2.29766e+08 	9.47416e-09 	-2.76924e+07
7.11405 	1.38869 	0.5 	6.37483 	1.24439 	0 	-9.49611e+07 	0.00791458 	-2.19586e-11 	2.29766e+08 	2.36854e-09 	-2.76924e+07
7.0935 	1.49013 	0.5 	6.35641 	1.33529 	0 	-9.49611e+07 	-0.108792 	1.01662e-11 	2.29766e+08 	-4.73708e-09 	-2.76924e+07
7.0715 	1.59127 	0.5 	6.33669 	1.42592 	0 	-9.49611e+07 	0.0125057 	2.22958e-09 	2.29766e+08 	-1.728e-17 	-2.76924e+07
7.04805 	1.69209 	0.5 	6.31568 	1.51626 	0 	-9.49611e+07 	-0.0424735 	1.103e-09 	2.29766e+08 	-1.03313e-17 	-2.76924e+07
7.02317 	1.79256 	0.5 	6.29339 	1.60629 	0 	-9.49611e+07 	-0.00350655 	2.19586e-11 	2.29766e+08 	2.36854e-09 	-2.76924e+07
6.99686 	1.89266 	0.5 	6.26981 	1.69599 	0 	-9.49611e+07 	-0.0200892 	5.69341e-12 	2.29766e+08 	4.73708e-09 	-2.76924e+07
6.96912 	1.99238 	0.5 	6.24495 	1.78535 	0 	-9.49611e+07 	-0.0495731 	4.47623e-09 	2.29766e+08 	-4.73708e-09 	-2.76924e+07
6.93996 	2.09169 	0.5 	6.21882 	1.87434 	0 	-9.49611e+07 	0.0235718 	2.92781e-11 	2.29766e+08 	2.33491e-17 	-2.76924e+07
6.90938 	2.19058 	0.5 	6.19142 	1.96295 	0 	-9.49611e+07 	-0.0509967 	1.09852e-09 	2.29766e+08 	-3.46218e-17 	-2.76924e+07
6.8774 	2.28902 	0.5 	6.16276 	2.05116 	0 	-9.49611e+07 	0.0425577 	3.3647e-09 	2.29766e+08 	-2.36854e-09 	-2.76924e+07
6.84401 	2.38699 	0.5 	6.13284 	2.13896 	0 	-9.49611e+07 	-0.0944743 	1.11031e-09 	2.29766e+08 	2.36854e-09 	-2.76924e+07
6.80923 	2.48448 	0.5 	6.10168 	2.22631 	0 	-9.49611e+07 	0.0398943 	-1.11763e-09 	2.29766e+08 	8.47154e-18 	-2.76924e+07
6.77306 	2.58146 	0.5 	6.06926 	2.31321 	0 	-9.49611e+07 	-0.0612497 	-2.20477e-09 	2.29766e+08 	-3.46976e-17 	-2.76924e+07
6.73551 	2.67791 	0.5 	6.03561 	2.39964 	0 	-9.49611e+07 	0.0279722 	1.74858e-11 	2.29766e+08 	2.36854e-09 	-2.76924e+07