/*--------------------------------*- C++ -*----------------------------------*\
| =========                 |                                                 |
| \\      /  F ield         | OpenFOAM: The Open Source CFD Toolbox           |
|  \\    /   O peration     | Version:  2312                                  |
|   \\  /    A nd           | Website:  www.openfoam.com                      |
|    \\/     M anipulation  |                                                 |
\*---------------------------------------------------------------------------*/
FoamFile
{
    version     2.0;
    format      ascii;
    arch        "LSB;label=32;scalar=64";
    class       volVectorField;
    location    "60";
    object      D_0_0_0;
}
// * * * * * * * * * * * * * * * * * * * * * * * * * * * * * * * * * * * * * //

dimensions      [0 1 0 0 0 0 0];

internalField   nonuniform List<vector> 
12870
(
(0.841087 0.00600545 0)
(0.840915 0.0180151 0)
(0.840572 0.0300211 0)
(0.840058 0.042021 0)
(0.839372 0.0540123 0)
(0.838515 0.0659926 0)
(0.837487 0.0779594 0)
(0.836289 0.0899103 0)
(0.83492 0.101843 0)
(0.83338 0.113755 0)
(0.831671 0.125643 0)
(0.829792 0.137506 0)
(0.827744 0.149341 0)
(0.825527 0.161146 0)
(0.823142 0.172918 0)
(0.820589 0.184654 0)
(0.817868 0.196353 0)
(0.814981 0.208011 0)
(0.811928 0.219628 0)
(0.808709 0.231199 0)
(0.805325 0.242724 0)
(0.801777 0.254199 0)
(0.798065 0.265622 0)
(0.794191 0.27699 0)
(0.790155 0.288303 0)
(0.785957 0.299556 0)
(0.7816 0.310749 0)
(0.777082 0.321878 0)
(0.772407 0.332942 0)
(0.767574 0.343937 0)
(0.762585 0.354863 0)
(0.75744 0.365716 0)
(0.75214 0.376494 0)
(0.746687 0.387196 0)
(0.741082 0.397819 0)
(0.735326 0.408361 0)
(0.72942 0.418819 0)
(0.723365 0.429192 0)
(0.717162 0.439478 0)
(0.710814 0.449674 0)
(0.70432 0.459778 0)
(0.697683 0.469788 0)
(0.690904 0.479703 0)
(0.683983 0.48952 0)
(0.676923 0.499237 0)
(0.669726 0.508852 0)
(0.662391 0.518363 0)
(0.654922 0.527769 0)
(0.647319 0.537067 0)
(0.639584 0.546256 0)
(0.631718 0.555333 0)
(0.623724 0.564297 0)
(0.615602 0.573146 0)
(0.607355 0.581878 0)
(0.598985 0.590492 0)
(0.590492 0.598985 0)
(0.581878 0.607355 0)
(0.573146 0.615602 0)
(0.564297 0.623724 0)
(0.555333 0.631718 0)
(0.546256 0.639584 0)
(0.537067 0.647319 0)
(0.527769 0.654922 0)
(0.518363 0.662391 0)
(0.508852 0.669726 0)
(0.499237 0.676923 0)
(0.48952 0.683983 0)
(0.479703 0.690904 0)
(0.469788 0.697683 0)
(0.459778 0.70432 0)
(0.449674 0.710814 0)
(0.439478 0.717162 0)
(0.429192 0.723365 0)
(0.418819 0.72942 0)
(0.408361 0.735326 0)
(0.397819 0.741082 0)
(0.387196 0.746687 0)
(0.376494 0.75214 0)
(0.365716 0.75744 0)
(0.354863 0.762585 0)
(0.343937 0.767574 0)
(0.332942 0.772407 0)
(0.321878 0.777082 0)
(0.310749 0.7816 0)
(0.299556 0.785957 0)
(0.288303 0.790155 0)
(0.27699 0.794191 0)
(0.265622 0.798065 0)
(0.254199 0.801777 0)
(0.242724 0.805325 0)
(0.231199 0.808709 0)
(0.219628 0.811928 0)
(0.208011 0.814981 0)
(0.196353 0.817868 0)
(0.184654 0.820589 0)
(0.172918 0.823142 0)
(0.161146 0.825527 0)
(0.149341 0.827744 0)
(0.137506 0.829792 0)
(0.125643 0.831671 0)
(0.113755 0.83338 0)
(0.101843 0.83492 0)
(0.0899103 0.836289 0)
(0.0779594 0.837487 0)
(0.0659926 0.838515 0)
(0.0540123 0.839372 0)
(0.042021 0.840058 0)
(0.0300211 0.840572 0)
(0.0180151 0.840915 0)
(0.00600545 0.841087 0)
(0.833994 0.0059548 0)
(0.833824 0.0178632 0)
(0.833484 0.0297679 0)
(0.832974 0.0416666 0)
(0.832294 0.0535568 0)
(0.831444 0.0654361 0)
(0.830425 0.077302 0)
(0.829236 0.0891521 0)
(0.827879 0.100984 0)
(0.826352 0.112795 0)
(0.824657 0.124584 0)
(0.822794 0.136347 0)
(0.820763 0.148082 0)
(0.818565 0.159787 0)
(0.8162 0.171459 0)
(0.813669 0.183097 0)
(0.810971 0.194697 0)
(0.808108 0.206257 0)
(0.805081 0.217776 0)
(0.801889 0.22925 0)
(0.798533 0.240677 0)
(0.795015 0.252055 0)
(0.791335 0.263382 0)
(0.787493 0.274655 0)
(0.783491 0.285872 0)
(0.779329 0.29703 0)
(0.775008 0.308128 0)
(0.770529 0.319164 0)
(0.765893 0.330134 0)
(0.761101 0.341037 0)
(0.756154 0.35187 0)
(0.751052 0.362632 0)
(0.745797 0.373319 0)
(0.74039 0.383931 0)
(0.734833 0.394464 0)
(0.729125 0.404917 0)
(0.723269 0.415287 0)
(0.717265 0.425573 0)
(0.711115 0.435772 0)
(0.70482 0.445882 0)
(0.698381 0.455901 0)
(0.6918 0.465827 0)
(0.685077 0.475658 0)
(0.678215 0.485392 0)
(0.671215 0.495027 0)
(0.664078 0.504561 0)
(0.656805 0.513992 0)
(0.649399 0.523319 0)
(0.64186 0.532538 0)
(0.63419 0.541649 0)
(0.626391 0.55065 0)
(0.618464 0.559538 0)
(0.610411 0.568313 0)
(0.602234 0.576971 0)
(0.593933 0.585512 0)
(0.585512 0.593933 0)
(0.576971 0.602234 0)
(0.568313 0.610411 0)
(0.559538 0.618464 0)
(0.55065 0.626391 0)
(0.541649 0.63419 0)
(0.532538 0.64186 0)
(0.523319 0.649399 0)
(0.513992 0.656805 0)
(0.504561 0.664078 0)
(0.495027 0.671215 0)
(0.485392 0.678215 0)
(0.475658 0.685077 0)
(0.465827 0.6918 0)
(0.455901 0.698381 0)
(0.445882 0.70482 0)
(0.435772 0.711115 0)
(0.425573 0.717265 0)
(0.415287 0.723269 0)
(0.404917 0.729125 0)
(0.394464 0.734833 0)
(0.383931 0.74039 0)
(0.373319 0.745797 0)
(0.362632 0.751052 0)
(0.35187 0.756154 0)
(0.341037 0.761101 0)
(0.330134 0.765893 0)
(0.319164 0.770529 0)
(0.308128 0.775008 0)
(0.29703 0.779329 0)
(0.285872 0.783491 0)
(0.274655 0.787493 0)
(0.263382 0.791335 0)
(0.252055 0.795015 0)
(0.240677 0.798533 0)
(0.22925 0.801889 0)
(0.217776 0.805081 0)
(0.206257 0.808108 0)
(0.194697 0.810971 0)
(0.183097 0.813669 0)
(0.171459 0.8162 0)
(0.159787 0.818565 0)
(0.148082 0.820763 0)
(0.136347 0.822794 0)
(0.124584 0.824657 0)
(0.112795 0.826352 0)
(0.100984 0.827879 0)
(0.0891521 0.829236 0)
(0.077302 0.830425 0)
(0.0654361 0.831444 0)
(0.0535568 0.832294 0)
(0.0416666 0.832974 0)
(0.0297679 0.833484 0)
(0.0178632 0.833824 0)
(0.0059548 0.833994 0)
(0.827214 0.00590639 0)
(0.827045 0.017718 0)
(0.826708 0.0295259 0)
(0.826202 0.0413279 0)
(0.825528 0.0531214 0)
(0.824685 0.0649041 0)
(0.823674 0.0766736 0)
(0.822495 0.0884274 0)
(0.821149 0.100163 0)
(0.819635 0.111879 0)
(0.817953 0.123571 0)
(0.816106 0.135238 0)
(0.814091 0.146878 0)
(0.811911 0.158488 0)
(0.809565 0.170066 0)
(0.807054 0.181608 0)
(0.804378 0.193114 0)
(0.801539 0.204581 0)
(0.798536 0.216005 0)
(0.79537 0.227386 0)
(0.792042 0.23872 0)
(0.788552 0.250006 0)
(0.784902 0.26124 0)
(0.781092 0.272422 0)
(0.777122 0.283548 0)
(0.772994 0.294616 0)
(0.768708 0.305624 0)
(0.764265 0.316569 0)
(0.759667 0.32745 0)
(0.754914 0.338264 0)
(0.750007 0.34901 0)
(0.744946 0.359684 0)
(0.739734 0.370285 0)
(0.734372 0.38081 0)
(0.728859 0.391257 0)
(0.723198 0.401625 0)
(0.717389 0.411911 0)
(0.711434 0.422113 0)
(0.705334 0.432229 0)
(0.69909 0.442257 0)
(0.692703 0.452194 0)
(0.686176 0.46204 0)
(0.679508 0.471791 0)
(0.672702 0.481446 0)
(0.665758 0.491002 0)
(0.658679 0.500459 0)
(0.651466 0.509814 0)
(0.644119 0.519064 0)
(0.636642 0.528209 0)
(0.629034 0.537246 0)
(0.621299 0.546174 0)
(0.613436 0.55499 0)
(0.605449 0.563693 0)
(0.597338 0.572281 0)
(0.589105 0.580752 0)
(0.580752 0.589105 0)
(0.572281 0.597338 0)
(0.563693 0.605449 0)
(0.55499 0.613436 0)
(0.546174 0.621299 0)
(0.537246 0.629034 0)
(0.528209 0.636642 0)
(0.519064 0.644119 0)
(0.509814 0.651466 0)
(0.500459 0.658679 0)
(0.491002 0.665758 0)
(0.481446 0.672702 0)
(0.471791 0.679508 0)
(0.46204 0.686176 0)
(0.452194 0.692703 0)
(0.442257 0.69909 0)
(0.432229 0.705334 0)
(0.422113 0.711434 0)
(0.411911 0.717389 0)
(0.401625 0.723198 0)
(0.391257 0.728859 0)
(0.38081 0.734372 0)
(0.370285 0.739734 0)
(0.359684 0.744946 0)
(0.34901 0.750007 0)
(0.338264 0.754914 0)
(0.32745 0.759667 0)
(0.316569 0.764265 0)
(0.305624 0.768708 0)
(0.294616 0.772994 0)
(0.283548 0.777122 0)
(0.272422 0.781092 0)
(0.26124 0.784902 0)
(0.250006 0.788552 0)
(0.23872 0.792042 0)
(0.227386 0.79537 0)
(0.216005 0.798536 0)
(0.204581 0.801539 0)
(0.193114 0.804378 0)
(0.181608 0.807054 0)
(0.170066 0.809565 0)
(0.158488 0.811911 0)
(0.146878 0.814091 0)
(0.135238 0.816106 0)
(0.123571 0.817953 0)
(0.111879 0.819635 0)
(0.100163 0.821149 0)
(0.0884274 0.822495 0)
(0.0766736 0.823674 0)
(0.0649041 0.824685 0)
(0.0531214 0.825528 0)
(0.0413279 0.826202 0)
(0.0295259 0.826708 0)
(0.017718 0.827045 0)
(0.00590639 0.827214 0)
(0.820568 0.00585894 0)
(0.8204 0.0175756 0)
(0.820066 0.0292887 0)
(0.819564 0.0409959 0)
(0.818895 0.0526946 0)
(0.818059 0.0643826 0)
(0.817056 0.0760575 0)
(0.815887 0.0877169 0)
(0.814551 0.0993584 0)
(0.813049 0.11098 0)
(0.811382 0.122578 0)
(0.809549 0.134152 0)
(0.80755 0.145698 0)
(0.805388 0.157215 0)
(0.803061 0.168699 0)
(0.80057 0.180149 0)
(0.797916 0.191563 0)
(0.795099 0.202937 0)
(0.79212 0.21427 0)
(0.78898 0.225559 0)
(0.785678 0.236802 0)
(0.782217 0.247997 0)
(0.778596 0.259142 0)
(0.774816 0.270233 0)
(0.770878 0.281269 0)
(0.766783 0.292249 0)
(0.762532 0.303168 0)
(0.758125 0.314026 0)
(0.753564 0.324819 0)
(0.748849 0.335547 0)
(0.743981 0.346206 0)
(0.738961 0.356794 0)
(0.733791 0.36731 0)
(0.728471 0.37775 0)
(0.723003 0.388114 0)
(0.717387 0.398399 0)
(0.711625 0.408602 0)
(0.705718 0.418722 0)
(0.699667 0.428756 0)
(0.693473 0.438704 0)
(0.687138 0.448561 0)
(0.680663 0.458327 0)
(0.674049 0.468 0)
(0.667297 0.477578 0)
(0.660409 0.487058 0)
(0.653387 0.496438 0)
(0.646232 0.505718 0)
(0.638944 0.514894 0)
(0.631527 0.523965 0)
(0.62398 0.53293 0)
(0.616307 0.541785 0)
(0.608508 0.550531 0)
(0.600584 0.559164 0)
(0.592539 0.567683 0)
(0.584372 0.576086 0)
(0.576086 0.584372 0)
(0.567683 0.592539 0)
(0.559164 0.600584 0)
(0.550531 0.608508 0)
(0.541785 0.616307 0)
(0.53293 0.62398 0)
(0.523965 0.631527 0)
(0.514894 0.638944 0)
(0.505718 0.646232 0)
(0.496438 0.653387 0)
(0.487058 0.660409 0)
(0.477578 0.667297 0)
(0.468 0.674049 0)
(0.458327 0.680663 0)
(0.448561 0.687138 0)
(0.438704 0.693473 0)
(0.428756 0.699667 0)
(0.418722 0.705718 0)
(0.408602 0.711625 0)
(0.398399 0.717387 0)
(0.388114 0.723003 0)
(0.37775 0.728471 0)
(0.36731 0.733791 0)
(0.356794 0.738961 0)
(0.346206 0.743981 0)
(0.335547 0.748849 0)
(0.324819 0.753564 0)
(0.314026 0.758125 0)
(0.303168 0.762532 0)
(0.292249 0.766783 0)
(0.281269 0.770878 0)
(0.270233 0.774816 0)
(0.259142 0.778596 0)
(0.247997 0.782217 0)
(0.236802 0.785678 0)
(0.225559 0.78898 0)
(0.21427 0.79212 0)
(0.202937 0.795099 0)
(0.191563 0.797916 0)
(0.180149 0.80057 0)
(0.168699 0.803061 0)
(0.157215 0.805388 0)
(0.145698 0.80755 0)
(0.134152 0.809549 0)
(0.122578 0.811382 0)
(0.11098 0.813049 0)
(0.0993584 0.814551 0)
(0.0877169 0.815887 0)
(0.0760575 0.817056 0)
(0.0643826 0.818059 0)
(0.0526946 0.818895 0)
(0.0409959 0.819564 0)
(0.0292887 0.820066 0)
(0.0175756 0.8204 0)
(0.00585894 0.820568 0)
(0.814142 0.00581306 0)
(0.813976 0.017438 0)
(0.813644 0.0290594 0)
(0.813146 0.0406748 0)
(0.812482 0.052282 0)
(0.811653 0.0638785 0)
(0.810658 0.0754619 0)
(0.809498 0.08703 0)
(0.808173 0.0985804 0)
(0.806683 0.110111 0)
(0.805028 0.121618 0)
(0.803209 0.133101 0)
(0.801227 0.144557 0)
(0.799081 0.155984 0)
(0.796772 0.167378 0)
(0.794301 0.178739 0)
(0.791667 0.190063 0)
(0.788873 0.201348 0)
(0.785917 0.212592 0)
(0.782801 0.223793 0)
(0.779526 0.234948 0)
(0.776091 0.246055 0)
(0.772499 0.257112 0)
(0.768749 0.268117 0)
(0.764842 0.279067 0)
(0.760779 0.28996 0)
(0.756561 0.300794 0)
(0.752188 0.311567 0)
(0.747663 0.322276 0)
(0.742984 0.332919 0)
(0.738155 0.343495 0)
(0.733175 0.354 0)
(0.728045 0.364433 0)
(0.722767 0.374792 0)
(0.717341 0.385075 0)
(0.711769 0.395279 0)
(0.706053 0.405402 0)
(0.700192 0.415443 0)
(0.694188 0.425399 0)
(0.688043 0.435268 0)
(0.681757 0.445049 0)
(0.675333 0.454738 0)
(0.66877 0.464335 0)
(0.662072 0.473838 0)
(0.655238 0.483244 0)
(0.648271 0.492551 0)
(0.641171 0.501757 0)
(0.633941 0.510862 0)
(0.626582 0.519862 0)
(0.619094 0.528756 0)
(0.611481 0.537543 0)
(0.603743 0.54622 0)
(0.595881 0.554785 0)
(0.587899 0.563237 0)
(0.579796 0.571575 0)
(0.571575 0.579796 0)
(0.563237 0.587899 0)
(0.554785 0.595881 0)
(0.54622 0.603743 0)
(0.537543 0.611481 0)
(0.528756 0.619094 0)
(0.519862 0.626582 0)
(0.510862 0.633941 0)
(0.501757 0.641171 0)
(0.492551 0.648271 0)
(0.483244 0.655238 0)
(0.473838 0.662072 0)
(0.464335 0.66877 0)
(0.454738 0.675333 0)
(0.445049 0.681757 0)
(0.435268 0.688043 0)
(0.425399 0.694188 0)
(0.415443 0.700192 0)
(0.405402 0.706053 0)
(0.395279 0.711769 0)
(0.385075 0.717341 0)
(0.374792 0.722767 0)
(0.364433 0.728045 0)
(0.354 0.733175 0)
(0.343495 0.738155 0)
(0.332919 0.742984 0)
(0.322276 0.747663 0)
(0.311567 0.752188 0)
(0.300794 0.756561 0)
(0.28996 0.760779 0)
(0.279067 0.764842 0)
(0.268117 0.768749 0)
(0.257112 0.772499 0)
(0.246055 0.776091 0)
(0.234948 0.779526 0)
(0.223793 0.782801 0)
(0.212592 0.785917 0)
(0.201348 0.788873 0)
(0.190063 0.791667 0)
(0.178739 0.794301 0)
(0.167378 0.796772 0)
(0.155984 0.799081 0)
(0.144557 0.801227 0)
(0.133101 0.803209 0)
(0.121618 0.805028 0)
(0.110111 0.806683 0)
(0.0985804 0.808173 0)
(0.08703 0.809498 0)
(0.0754619 0.810658 0)
(0.0638785 0.811653 0)
(0.052282 0.812482 0)
(0.0406748 0.813146 0)
(0.0290594 0.813644 0)
(0.017438 0.813976 0)
(0.00581306 0.814142 0)
(0.807881 0.00576836 0)
(0.807716 0.0173039 0)
(0.807387 0.0288359 0)
(0.806893 0.040362 0)
(0.806234 0.0518799 0)
(0.805411 0.0633872 0)
(0.804424 0.0748816 0)
(0.803273 0.0863608 0)
(0.801958 0.0978223 0)
(0.800479 0.109264 0)
(0.798837 0.120683 0)
(0.797032 0.132078 0)
(0.795065 0.143446 0)
(0.792936 0.154784 0)
(0.790645 0.166091 0)
(0.788192 0.177364 0)
(0.785579 0.188601 0)
(0.782806 0.199799 0)
(0.779873 0.210957 0)
(0.776781 0.222072 0)
(0.773531 0.233141 0)
(0.770123 0.244163 0)
(0.766558 0.255135 0)
(0.762837 0.266055 0)
(0.75896 0.276921 0)
(0.754928 0.28773 0)
(0.750743 0.298481 0)
(0.746404 0.309171 0)
(0.741913 0.319797 0)
(0.737271 0.330359 0)
(0.732478 0.340853 0)
(0.727536 0.351278 0)
(0.722446 0.361631 0)
(0.717209 0.37191 0)
(0.711825 0.382113 0)
(0.706296 0.392239 0)
(0.700623 0.402285 0)
(0.694807 0.412248 0)
(0.68885 0.422128 0)
(0.682752 0.431921 0)
(0.676514 0.441626 0)
(0.670139 0.451241 0)
(0.663627 0.460765 0)
(0.65698 0.470194 0)
(0.650199 0.479527 0)
(0.643285 0.488763 0)
(0.63624 0.497899 0)
(0.629066 0.506933 0)
(0.621763 0.515864 0)
(0.614333 0.52469 0)
(0.606778 0.533409 0)
(0.5991 0.542019 0)
(0.591299 0.550519 0)
(0.583377 0.558906 0)
(0.575337 0.567179 0)
(0.567179 0.575337 0)
(0.558906 0.583377 0)
(0.550519 0.591299 0)
(0.542019 0.5991 0)
(0.533409 0.606778 0)
(0.52469 0.614333 0)
(0.515864 0.621763 0)
(0.506933 0.629066 0)
(0.497899 0.63624 0)
(0.488763 0.643285 0)
(0.479527 0.650199 0)
(0.470194 0.65698 0)
(0.460765 0.663627 0)
(0.451241 0.670139 0)
(0.441626 0.676514 0)
(0.431921 0.682752 0)
(0.422128 0.688849 0)
(0.412248 0.694807 0)
(0.402285 0.700623 0)
(0.392239 0.706296 0)
(0.382113 0.711825 0)
(0.37191 0.717209 0)
(0.361631 0.722446 0)
(0.351278 0.727536 0)
(0.340853 0.732478 0)
(0.330359 0.737271 0)
(0.319797 0.741913 0)
(0.309171 0.746404 0)
(0.298481 0.750743 0)
(0.28773 0.754928 0)
(0.276921 0.75896 0)
(0.266055 0.762837 0)
(0.255135 0.766558 0)
(0.244163 0.770123 0)
(0.233141 0.773531 0)
(0.222072 0.776781 0)
(0.210957 0.779873 0)
(0.199799 0.782806 0)
(0.188601 0.785579 0)
(0.177364 0.788192 0)
(0.166091 0.790645 0)
(0.154784 0.792936 0)
(0.143446 0.795065 0)
(0.132078 0.797032 0)
(0.120683 0.798837 0)
(0.109264 0.800479 0)
(0.0978223 0.801958 0)
(0.0863608 0.803273 0)
(0.0748816 0.804424 0)
(0.0633872 0.805411 0)
(0.0518799 0.806234 0)
(0.040362 0.806893 0)
(0.0288359 0.807387 0)
(0.0173039 0.807716 0)
(0.00576836 0.807881 0)
(0.801806 0.00572498 0)
(0.801643 0.0171738 0)
(0.801316 0.0286191 0)
(0.800825 0.0400585 0)
(0.800172 0.0514898 0)
(0.799355 0.0629106 0)
(0.798375 0.0743185 0)
(0.797232 0.0857114 0)
(0.795927 0.0970867 0)
(0.79446 0.108442 0)
(0.79283 0.119776 0)
(0.791039 0.131085 0)
(0.789087 0.142367 0)
(0.786973 0.15362 0)
(0.784699 0.164842 0)
(0.782265 0.17603 0)
(0.779672 0.187183 0)
(0.77692 0.198297 0)
(0.774009 0.209371 0)
(0.77094 0.220402 0)
(0.767714 0.231388 0)
(0.764332 0.242327 0)
(0.760794 0.253217 0)
(0.7571 0.264054 0)
(0.753253 0.274839 0)
(0.749251 0.285567 0)
(0.745097 0.296236 0)
(0.740791 0.306846 0)
(0.736334 0.317393 0)
(0.731727 0.327875 0)
(0.72697 0.33829 0)
(0.722066 0.348636 0)
(0.717014 0.358911 0)
(0.711815 0.369113 0)
(0.706472 0.37924 0)
(0.700985 0.389289 0)
(0.695354 0.399259 0)
(0.689582 0.409148 0)
(0.68367 0.418953 0)
(0.677617 0.428673 0)
(0.671427 0.438305 0)
(0.6651 0.447848 0)
(0.658637 0.4573 0)
(0.65204 0.466658 0)
(0.64531 0.475921 0)
(0.638448 0.485088 0)
(0.631456 0.494155 0)
(0.624335 0.503121 0)
(0.617088 0.511985 0)
(0.609714 0.520745 0)
(0.602216 0.529398 0)
(0.594595 0.537943 0)
(0.586852 0.546379 0)
(0.578991 0.554703 0)
(0.571011 0.562914 0)
(0.562914 0.571011 0)
(0.554703 0.578991 0)
(0.546379 0.586852 0)
(0.537943 0.594595 0)
(0.529398 0.602216 0)
(0.520745 0.609714 0)
(0.511985 0.617088 0)
(0.503121 0.624335 0)
(0.494155 0.631456 0)
(0.485088 0.638448 0)
(0.475921 0.64531 0)
(0.466658 0.65204 0)
(0.4573 0.658637 0)
(0.447848 0.6651 0)
(0.438305 0.671427 0)
(0.428673 0.677617 0)
(0.418953 0.68367 0)
(0.409148 0.689582 0)
(0.399259 0.695354 0)
(0.389289 0.700985 0)
(0.37924 0.706472 0)
(0.369113 0.711815 0)
(0.358911 0.717014 0)
(0.348636 0.722066 0)
(0.33829 0.72697 0)
(0.327875 0.731727 0)
(0.317393 0.736334 0)
(0.306846 0.740791 0)
(0.296236 0.745097 0)
(0.285567 0.749251 0)
(0.274839 0.753253 0)
(0.264054 0.7571 0)
(0.253217 0.760794 0)
(0.242327 0.764332 0)
(0.231388 0.767714 0)
(0.220402 0.77094 0)
(0.209371 0.774009 0)
(0.198297 0.77692 0)
(0.187183 0.779672 0)
(0.17603 0.782265 0)
(0.164842 0.784699 0)
(0.15362 0.786973 0)
(0.142367 0.789087 0)
(0.131085 0.791039 0)
(0.119776 0.79283 0)
(0.108442 0.79446 0)
(0.0970867 0.795927 0)
(0.0857114 0.797232 0)
(0.0743185 0.798375 0)
(0.0629106 0.799355 0)
(0.0514898 0.800172 0)
(0.0400585 0.800825 0)
(0.0286191 0.801316 0)
(0.0171738 0.801643 0)
(0.00572498 0.801806 0)
(0.795897 0.00568279 0)
(0.795735 0.0170472 0)
(0.79541 0.0284082 0)
(0.794924 0.0397633 0)
(0.794275 0.0511103 0)
(0.793464 0.062447 0)
(0.792491 0.0737709 0)
(0.791357 0.0850797 0)
(0.790062 0.0963712 0)
(0.788605 0.107643 0)
(0.786987 0.118893 0)
(0.785209 0.130119 0)
(0.783271 0.141318 0)
(0.781174 0.152488 0)
(0.778916 0.163627 0)
(0.776501 0.174733 0)
(0.773926 0.185803 0)
(0.771194 0.196836 0)
(0.768305 0.207828 0)
(0.765259 0.218778 0)
(0.762057 0.229683 0)
(0.758699 0.240541 0)
(0.755187 0.25135 0)
(0.751521 0.262108 0)
(0.747702 0.272813 0)
(0.74373 0.283462 0)
(0.739606 0.294053 0)
(0.735332 0.304584 0)
(0.730908 0.315054 0)
(0.726334 0.325458 0)
(0.721613 0.335797 0)
(0.716744 0.346067 0)
(0.71173 0.356266 0)
(0.70657 0.366393 0)
(0.701266 0.376445 0)
(0.695819 0.386421 0)
(0.69023 0.396317 0)
(0.6845 0.406133 0)
(0.678631 0.415866 0)
(0.672624 0.425514 0)
(0.666479 0.435075 0)
(0.660198 0.444548 0)
(0.653783 0.45393 0)
(0.647235 0.463219 0)
(0.640554 0.472414 0)
(0.633743 0.481513 0)
(0.626803 0.490513 0)
(0.619734 0.499414 0)
(0.61254 0.508212 0)
(0.60522 0.516907 0)
(0.597778 0.525497 0)
(0.590213 0.533979 0)
(0.582528 0.542352 0)
(0.574724 0.550615 0)
(0.566803 0.558766 0)
(0.558766 0.566803 0)
(0.550615 0.574724 0)
(0.542352 0.582528 0)
(0.533979 0.590213 0)
(0.525497 0.597778 0)
(0.516907 0.60522 0)
(0.508212 0.61254 0)
(0.499414 0.619734 0)
(0.490513 0.626803 0)
(0.481513 0.633743 0)
(0.472414 0.640554 0)
(0.463219 0.647235 0)
(0.45393 0.653783 0)
(0.444548 0.660198 0)
(0.435075 0.666479 0)
(0.425514 0.672624 0)
(0.415866 0.678631 0)
(0.406133 0.6845 0)
(0.396317 0.69023 0)
(0.386421 0.695819 0)
(0.376445 0.701266 0)
(0.366393 0.70657 0)
(0.356266 0.71173 0)
(0.346067 0.716744 0)
(0.335797 0.721613 0)
(0.325458 0.726334 0)
(0.315054 0.730908 0)
(0.304584 0.735332 0)
(0.294053 0.739606 0)
(0.283462 0.74373 0)
(0.272813 0.747702 0)
(0.262108 0.751521 0)
(0.25135 0.755187 0)
(0.240541 0.758699 0)
(0.229683 0.762057 0)
(0.218778 0.765259 0)
(0.207828 0.768305 0)
(0.196836 0.771194 0)
(0.185803 0.773926 0)
(0.174733 0.776501 0)
(0.163627 0.778916 0)
(0.152488 0.781174 0)
(0.141318 0.783271 0)
(0.130119 0.785209 0)
(0.118893 0.786987 0)
(0.107643 0.788605 0)
(0.0963712 0.790062 0)
(0.0850797 0.791357 0)
(0.0737709 0.792491 0)
(0.062447 0.793464 0)
(0.0511103 0.794275 0)
(0.0397633 0.794924 0)
(0.0284082 0.79541 0)
(0.0170472 0.795735 0)
(0.00568279 0.795897 0)
(0.790157 0.0056418 0)
(0.789996 0.0169243 0)
(0.789674 0.0282033 0)
(0.78919 0.0394765 0)
(0.788546 0.0507417 0)
(0.787741 0.0619966 0)
(0.786776 0.0732388 0)
(0.78565 0.0844661 0)
(0.784363 0.0956761 0)
(0.782917 0.106867 0)
(0.781311 0.118035 0)
(0.779546 0.12918 0)
(0.777622 0.140298 0)
(0.775539 0.151388 0)
(0.773299 0.162447 0)
(0.7709 0.173473 0)
(0.768344 0.184463 0)
(0.765632 0.195416 0)
(0.762763 0.206329 0)
(0.759739 0.2172 0)
(0.75656 0.228026 0)
(0.753227 0.238806 0)
(0.74974 0.249538 0)
(0.746101 0.260218 0)
(0.742309 0.270845 0)
(0.738366 0.281418 0)
(0.734272 0.291932 0)
(0.730028 0.302388 0)
(0.725636 0.312781 0)
(0.721096 0.323111 0)
(0.716408 0.333375 0)
(0.711575 0.343571 0)
(0.706596 0.353697 0)
(0.701474 0.363751 0)
(0.696208 0.37373 0)
(0.6908 0.383634 0)
(0.685252 0.393459 0)
(0.679563 0.403204 0)
(0.673737 0.412866 0)
(0.667772 0.422445 0)
(0.661672 0.431937 0)
(0.655437 0.441342 0)
(0.649068 0.450656 0)
(0.642566 0.459878 0)
(0.635934 0.469007 0)
(0.629172 0.47804 0)
(0.622282 0.486975 0)
(0.615265 0.495812 0)
(0.608122 0.504547 0)
(0.600855 0.513179 0)
(0.593466 0.521706 0)
(0.585956 0.530128 0)
(0.578326 0.538441 0)
(0.570579 0.546644 0)
(0.562715 0.554736 0)
(0.554736 0.562715 0)
(0.546644 0.570579 0)
(0.538441 0.578326 0)
(0.530128 0.585956 0)
(0.521706 0.593466 0)
(0.513179 0.600855 0)
(0.504547 0.608122 0)
(0.495812 0.615265 0)
(0.486975 0.622282 0)
(0.47804 0.629172 0)
(0.469007 0.635934 0)
(0.459878 0.642566 0)
(0.450656 0.649068 0)
(0.441342 0.655437 0)
(0.431937 0.661672 0)
(0.422445 0.667772 0)
(0.412866 0.673737 0)
(0.403204 0.679563 0)
(0.393459 0.685252 0)
(0.383634 0.6908 0)
(0.37373 0.696208 0)
(0.363751 0.701474 0)
(0.353697 0.706596 0)
(0.343571 0.711575 0)
(0.333375 0.716408 0)
(0.323111 0.721096 0)
(0.312781 0.725636 0)
(0.302388 0.730028 0)
(0.291932 0.734272 0)
(0.281418 0.738366 0)
(0.270845 0.742309 0)
(0.260218 0.746101 0)
(0.249538 0.74974 0)
(0.238806 0.753227 0)
(0.228026 0.75656 0)
(0.2172 0.759739 0)
(0.206329 0.762763 0)
(0.195416 0.765632 0)
(0.184463 0.768344 0)
(0.173473 0.7709 0)
(0.162447 0.773299 0)
(0.151388 0.775539 0)
(0.140298 0.777622 0)
(0.12918 0.779546 0)
(0.118035 0.781311 0)
(0.106867 0.782917 0)
(0.0956761 0.784363 0)
(0.0844661 0.78565 0)
(0.0732388 0.786776 0)
(0.0619966 0.787741 0)
(0.0507417 0.788546 0)
(0.0394765 0.78919 0)
(0.0282033 0.789674 0)
(0.0169243 0.789996 0)
(0.0056418 0.790157 0)
(0.784576 0.00560195 0)
(0.784416 0.0168047 0)
(0.784096 0.0280041 0)
(0.783616 0.0391977 0)
(0.782976 0.0503833 0)
(0.782177 0.0615587 0)
(0.781218 0.0727215 0)
(0.7801 0.0838695 0)
(0.778823 0.0950003 0)
(0.777387 0.106112 0)
(0.775793 0.117202 0)
(0.77404 0.128268 0)
(0.77213 0.139308 0)
(0.770062 0.150319 0)
(0.767837 0.1613 0)
(0.765455 0.172248 0)
(0.762917 0.18316 0)
(0.760224 0.194036 0)
(0.757376 0.204871 0)
(0.754373 0.215666 0)
(0.751217 0.226416 0)
(0.747907 0.23712 0)
(0.744445 0.247775 0)
(0.740831 0.25838 0)
(0.737066 0.268932 0)
(0.73315 0.27943 0)
(0.729086 0.28987 0)
(0.724872 0.300252 0)
(0.720511 0.310572 0)
(0.716002 0.320829 0)
(0.711348 0.33102 0)
(0.706549 0.341144 0)
(0.701605 0.351199 0)
(0.696519 0.361181 0)
(0.69129 0.37109 0)
(0.685921 0.380924 0)
(0.680412 0.39068 0)
(0.674764 0.400356 0)
(0.668978 0.40995 0)
(0.663056 0.419461 0)
(0.656999 0.428886 0)
(0.650807 0.438224 0)
(0.644483 0.447473 0)
(0.638028 0.45663 0)
(0.631442 0.465694 0)
(0.624728 0.474663 0)
(0.617887 0.483536 0)
(0.610919 0.49231 0)
(0.603827 0.500983 0)
(0.596611 0.509554 0)
(0.589274 0.518022 0)
(0.581817 0.526383 0)
(0.574241 0.534638 0)
(0.566549 0.542783 0)
(0.55874 0.550818 0)
(0.550818 0.55874 0)
(0.542783 0.566549 0)
(0.534638 0.574241 0)
(0.526383 0.581817 0)
(0.518022 0.589274 0)
(0.509554 0.596611 0)
(0.500983 0.603827 0)
(0.49231 0.610919 0)
(0.483536 0.617887 0)
(0.474663 0.624728 0)
(0.465694 0.631442 0)
(0.45663 0.638028 0)
(0.447473 0.644483 0)
(0.438224 0.650807 0)
(0.428886 0.656999 0)
(0.419461 0.663056 0)
(0.40995 0.668978 0)
(0.400356 0.674764 0)
(0.39068 0.680412 0)
(0.380924 0.685921 0)
(0.37109 0.69129 0)
(0.361181 0.696519 0)
(0.351199 0.701605 0)
(0.341144 0.706549 0)
(0.33102 0.711348 0)
(0.320829 0.716002 0)
(0.310572 0.720511 0)
(0.300252 0.724872 0)
(0.28987 0.729086 0)
(0.27943 0.73315 0)
(0.268932 0.737066 0)
(0.25838 0.740831 0)
(0.247775 0.744445 0)
(0.23712 0.747907 0)
(0.226416 0.751217 0)
(0.215666 0.754373 0)
(0.204871 0.757376 0)
(0.194036 0.760224 0)
(0.18316 0.762917 0)
(0.172248 0.765455 0)
(0.1613 0.767837 0)
(0.150319 0.770062 0)
(0.139308 0.77213 0)
(0.128268 0.77404 0)
(0.117202 0.775793 0)
(0.106112 0.777387 0)
(0.0950003 0.778823 0)
(0.0838695 0.7801 0)
(0.0727215 0.781218 0)
(0.0615587 0.782177 0)
(0.0503833 0.782976 0)
(0.0391977 0.783616 0)
(0.0280041 0.784096 0)
(0.0168047 0.784416 0)
(0.00560195 0.784576 0)
(0.779152 0.00556322 0)
(0.778993 0.0166885 0)
(0.778675 0.0278104 0)
(0.778199 0.0389267 0)
(0.777563 0.050035 0)
(0.77677 0.0611331 0)
(0.775817 0.0722187 0)
(0.774707 0.0832896 0)
(0.773439 0.0943436 0)
(0.772013 0.105378 0)
(0.770429 0.116391 0)
(0.768689 0.127381 0)
(0.766791 0.138344 0)
(0.764738 0.14928 0)
(0.762528 0.160185 0)
(0.760163 0.171057 0)
(0.757643 0.181894 0)
(0.754968 0.192694 0)
(0.75214 0.203455 0)
(0.749158 0.214175 0)
(0.746023 0.22485 0)
(0.742736 0.23548 0)
(0.739298 0.246062 0)
(0.735709 0.256594 0)
(0.73197 0.267073 0)
(0.728082 0.277498 0)
(0.724045 0.287866 0)
(0.719861 0.298176 0)
(0.715529 0.308425 0)
(0.711052 0.318611 0)
(0.70643 0.328732 0)
(0.701664 0.338786 0)
(0.696755 0.348771 0)
(0.691704 0.358684 0)
(0.686511 0.368525 0)
(0.681179 0.37829 0)
(0.675708 0.387979 0)
(0.670099 0.397588 0)
(0.664353 0.407116 0)
(0.658472 0.416561 0)
(0.652456 0.425921 0)
(0.646308 0.435195 0)
(0.640028 0.444379 0)
(0.633617 0.453473 0)
(0.627077 0.462475 0)
(0.620409 0.471382 0)
(0.613615 0.480193 0)
(0.606695 0.488906 0)
(0.599652 0.497519 0)
(0.592487 0.506031 0)
(0.5852 0.51444 0)
(0.577795 0.522744 0)
(0.570271 0.530941 0)
(0.562632 0.53903 0)
(0.554877 0.54701 0)
(0.54701 0.554877 0)
(0.53903 0.562632 0)
(0.530941 0.570271 0)
(0.522744 0.577795 0)
(0.51444 0.5852 0)
(0.506031 0.592487 0)
(0.497519 0.599652 0)
(0.488906 0.606695 0)
(0.480193 0.613615 0)
(0.471382 0.620409 0)
(0.462475 0.627077 0)
(0.453473 0.633617 0)
(0.444379 0.640028 0)
(0.435195 0.646308 0)
(0.425921 0.652456 0)
(0.416561 0.658472 0)
(0.407116 0.664353 0)
(0.397588 0.670099 0)
(0.387979 0.675708 0)
(0.37829 0.681179 0)
(0.368525 0.686511 0)
(0.358684 0.691704 0)
(0.348771 0.696755 0)
(0.338786 0.701664 0)
(0.328732 0.70643 0)
(0.318611 0.711052 0)
(0.308425 0.715529 0)
(0.298176 0.719861 0)
(0.287866 0.724045 0)
(0.277498 0.728082 0)
(0.267073 0.73197 0)
(0.256594 0.735709 0)
(0.246062 0.739298 0)
(0.23548 0.742736 0)
(0.22485 0.746023 0)
(0.214175 0.749158 0)
(0.203455 0.75214 0)
(0.192694 0.754968 0)
(0.181894 0.757643 0)
(0.171057 0.760163 0)
(0.160185 0.762528 0)
(0.14928 0.764738 0)
(0.138344 0.766791 0)
(0.127381 0.768689 0)
(0.116391 0.770429 0)
(0.105378 0.772013 0)
(0.0943436 0.773439 0)
(0.0832896 0.774707 0)
(0.0722187 0.775817 0)
(0.0611331 0.77677 0)
(0.050035 0.777563 0)
(0.0389267 0.778199 0)
(0.0278104 0.778675 0)
(0.0166885 0.778993 0)
(0.00556322 0.779152 0)
(0.773878 0.00552557 0)
(0.773721 0.0165756 0)
(0.773405 0.0276222 0)
(0.772932 0.0386632 0)
(0.772301 0.0496964 0)
(0.771512 0.0607193 0)
(0.770567 0.0717299 0)
(0.769464 0.0827259 0)
(0.768204 0.093705 0)
(0.766788 0.104665 0)
(0.765215 0.115604 0)
(0.763486 0.126519 0)
(0.761602 0.137408 0)
(0.759562 0.148269 0)
(0.757367 0.1591 0)
(0.755018 0.169899 0)
(0.752515 0.180663 0)
(0.749859 0.19139 0)
(0.747049 0.202078 0)
(0.744088 0.212725 0)
(0.740974 0.223328 0)
(0.73771 0.233886 0)
(0.734295 0.244397 0)
(0.73073 0.254857 0)
(0.727016 0.265266 0)
(0.723154 0.27562 0)
(0.719145 0.285918 0)
(0.714989 0.296158 0)
(0.710687 0.306337 0)
(0.70624 0.316454 0)
(0.701649 0.326507 0)
(0.696915 0.336493 0)
(0.692039 0.34641 0)
(0.687022 0.356257 0)
(0.681865 0.366031 0)
(0.676569 0.37573 0)
(0.671134 0.385353 0)
(0.665563 0.394897 0)
(0.659857 0.404361 0)
(0.654015 0.413742 0)
(0.648041 0.423039 0)
(0.641934 0.432249 0)
(0.635696 0.441372 0)
(0.629329 0.450404 0)
(0.622833 0.459345 0)
(0.61621 0.468191 0)
(0.609462 0.476943 0)
(0.602589 0.485597 0)
(0.595594 0.494152 0)
(0.588477 0.502607 0)
(0.58124 0.510958 0)
(0.573884 0.519206 0)
(0.566412 0.527348 0)
(0.558824 0.535382 0)
(0.551122 0.543307 0)
(0.543307 0.551122 0)
(0.535382 0.558824 0)
(0.527348 0.566412 0)
(0.519206 0.573884 0)
(0.510958 0.58124 0)
(0.502607 0.588477 0)
(0.494152 0.595594 0)
(0.485597 0.602589 0)
(0.476943 0.609462 0)
(0.468191 0.61621 0)
(0.459345 0.622833 0)
(0.450404 0.629329 0)
(0.441372 0.635696 0)
(0.432249 0.641934 0)
(0.423039 0.648041 0)
(0.413742 0.654015 0)
(0.404361 0.659857 0)
(0.394897 0.665563 0)
(0.385353 0.671134 0)
(0.37573 0.676569 0)
(0.366031 0.681865 0)
(0.356257 0.687022 0)
(0.34641 0.692039 0)
(0.336493 0.696915 0)
(0.326507 0.701649 0)
(0.316454 0.70624 0)
(0.306337 0.710687 0)
(0.296158 0.714989 0)
(0.285918 0.719145 0)
(0.27562 0.723154 0)
(0.265266 0.727016 0)
(0.254857 0.73073 0)
(0.244397 0.734295 0)
(0.233886 0.73771 0)
(0.223328 0.740974 0)
(0.212725 0.744088 0)
(0.202078 0.747049 0)
(0.19139 0.749859 0)
(0.180663 0.752515 0)
(0.169899 0.755018 0)
(0.1591 0.757367 0)
(0.148269 0.759562 0)
(0.137408 0.761602 0)
(0.126519 0.763486 0)
(0.115604 0.765215 0)
(0.104665 0.766788 0)
(0.093705 0.768204 0)
(0.0827259 0.769464 0)
(0.0717299 0.770567 0)
(0.0607193 0.771512 0)
(0.0496964 0.772301 0)
(0.0386632 0.772932 0)
(0.0276222 0.773405 0)
(0.0165756 0.773721 0)
(0.00552557 0.773878 0)
(0.768752 0.00548897 0)
(0.768595 0.0164658 0)
(0.768282 0.0274393 0)
(0.767812 0.0384071 0)
(0.767185 0.0493672 0)
(0.766402 0.0603171 0)