/*--------------------------------*- C++ -*----------------------------------*\
| =========                 |                                                 |
| \\      /  F ield         | OpenFOAM: The Open Source CFD Toolbox           |
|  \\    /   O peration     | Version:  2312                                  |
|   \\  /    A nd           | Website:  www.openfoam.com                      |
|    \\/     M anipulation  |                                                 |
\*---------------------------------------------------------------------------*/
FoamFile
{
    version     2.0;
    format      ascii;
    arch        "LSB;label=32;scalar=64";
    class       volTensorField;
    location    "60";
    object      F;
}
// * * * * * * * * * * * * * * * * * * * * * * * * * * * * * * * * * * * * * //

dimensions      [0 0 0 0 0 0 0];

internalField   nonuniform List<tensor> 
12870
(
(0.855435 -0.00316697 6.03962e-20 -0.00316697 1.29896 -1.63806e-17 0 0 1)
(0.855616 -0.00949832 -8.20273e-18 -0.00949832 1.29878 8.01648e-18 0 0 1)
(0.855977 -0.0158219 1.15503e-17 -0.0158219 1.29842 1.68036e-17 0 0 1)
(0.856519 -0.0221326 4.37427e-19 -0.0221326 1.29787 -8.17869e-18 0 0 1)
(0.857241 -0.0284253 -4.57457e-18 -0.0284253 1.29715 7.9129e-18 0 0 1)
(0.858143 -0.0346947 1.21617e-17 -0.0346947 1.29625 9.57143e-19 0 0 1)
(0.859223 -0.0409359 -3.2804e-18 -0.0409359 1.29517 -8.5311e-18 0 0 1)
(0.860481 -0.0471437 7.27635e-18 -0.0471437 1.29391 9.01982e-18 0 0 1)
(0.861915 -0.053313 -1.9834e-18 -0.053313 1.29248 1.62601e-17 0 0 1)
(0.863525 -0.0594389 6.95977e-18 -0.0594389 1.29087 9.21627e-18 0 0 1)
(0.86531 -0.0655162 9.27437e-18 -0.0655162 1.28908 -6.88215e-18 0 0 1)
(0.867267 -0.0715402 9.33041e-18 -0.0715402 1.28713 -3.16619e-17 0 0 1)
(0.869396 -0.0775058 -1.59145e-17 -0.0775058 1.285 -2.87129e-18 0 0 1)
(0.871694 -0.0834081 -4.17614e-18 -0.0834081 1.2827 -8.15198e-19 0 0 1)
(0.874159 -0.0892425 -6.17385e-18 -0.0892425 1.28023 -9.66604e-18 0 0 1)
(0.876791 -0.095004 -1.3393e-17 -0.095004 1.2776 2.21716e-17 0 0 1)
(0.879585 -0.100688 -1.93949e-18 -0.100688 1.27481 7.95743e-18 0 0 1)
(0.882541 -0.10629 3.95838e-18 -0.10629 1.27185 1.01032e-18 0 0 1)
(0.885656 -0.111805 6.05488e-18 -0.111805 1.26874 -6.84683e-18 0 0 1)
(0.888927 -0.117229 2.27851e-18 -0.117229 1.26547 -7.86706e-18 0 0 1)
(0.892351 -0.122558 0 -0.122558 1.26204 0 0 0 1)
(0.895926 -0.127786 -6.34255e-18 -0.127786 1.25847 6.58124e-18 0 0 1)
(0.899649 -0.132911 -5.173e-18 -0.132911 1.25474 1.55424e-17 0 0 1)
(0.903517 -0.137926 6.47449e-18 -0.137926 1.25088 -6.41606e-18 0 0 1)
(0.907526 -0.14283 1.83007e-18 -0.14283 1.24687 -1.67692e-17 0 0 1)
(0.911674 -0.147617 1.85378e-18 -0.147617 1.24272 1.82366e-17 0 0 1)
(0.915957 -0.152283 1.34867e-17 -0.152283 1.23844 -1.22658e-17 0 0 1)
(0.920371 -0.156825 -1.12323e-18 -0.156825 1.23402 -1.81956e-17 0 0 1)
(0.924914 -0.16124 -3.85548e-18 -0.16124 1.22948 -1.66188e-18 0 0 1)
(0.92958 -0.165523 -1.77277e-17 -0.165523 1.22481 1.00064e-17 0 0 1)
(0.934367 -0.16967 -6.51676e-18 -0.16967 1.22003 3.31022e-17 0 0 1)
(0.93927 -0.17368 7.07142e-18 -0.17368 1.21512 -1.47758e-17 0 0 1)
(0.944286 -0.177548 8.8844e-20 -0.177548 1.21011 -9.11466e-18 0 0 1)
(0.94941 -0.181271 -7.42212e-18 -0.181271 1.20498 5.37726e-18 0 0 1)
(0.954639 -0.184846 7.44831e-18 -0.184846 1.19975 -5.29748e-18 0 0 1)
(0.959967 -0.18827 4.29666e-19 -0.18827 1.19443 -9.12995e-18 0 0 1)
(0.965391 -0.191541 8.10749e-18 -0.191541 1.189 -1.42337e-17 0 0 1)
(0.970907 -0.194656 1.38041e-18 -0.194656 1.18349 -1.82279e-17 0 0 1)
(0.976509 -0.197611 -2.24437e-17 -0.197611 1.17788 5.45816e-18 0 0 1)
(0.982193 -0.200406 -2.44197e-17 -0.200406 1.1722 2.33182e-17 0 0 1)
(0.987954 -0.203037 6.74706e-18 -0.203037 1.16644 4.40446e-18 0 0 1)
(0.993789 -0.205503 9.38339e-20 -0.205503 1.1606 6.31835e-20 0 0 1)
(0.999691 -0.207801 -2.67726e-18 -0.207801 1.1547 1.8083e-17 0 0 1)
(1.00566 -0.209929 9.48745e-18 -0.209929 1.14874 -1.33536e-17 0 0 1)
(1.01168 -0.211887 -3.19679e-18 -0.211887 1.14271 -2.35766e-18 0 0 1)
(1.01776 -0.213671 -3.44924e-18 -0.213671 1.13664 1.79518e-17 0 0 1)
(1.02388 -0.215281 0 -0.215281 1.13051 0 0 0 1)
(1.03005 -0.216716 1.34153e-17 -0.216716 1.12434 -1.02268e-17 0 0 1)
(1.03626 -0.217974 2.09189e-17 -0.217974 1.11813 -2.52132e-17 0 0 1)
(1.0425 -0.219054 1.36199e-18 -0.219054 1.11189 -2.03787e-17 0 0 1)
(1.04877 -0.219955 -9.2048e-18 -0.219955 1.10562 -8.09179e-18 0 0 1)
(1.05506 -0.220677 -2.551e-17 -0.220677 1.09933 1.00551e-17 0 0 1)
(1.06137 -0.221219 -8.25488e-18 -0.221219 1.09302 1.46956e-17 0 0 1)
(1.0677 -0.221581 -5.85903e-18 -0.221581 1.0867 -5.61325e-18 0 0 1)
(1.07403 -0.221762 -1.44092e-17 -0.221762 1.08036 8.79725e-18 0 0 1)
(1.08036 -0.221762 1.72452e-17 -0.221762 1.07403 5.82675e-18 0 0 1)
(1.0867 -0.221581 7.82589e-20 -0.221581 1.0677 8.16855e-20 0 0 1)
(1.09302 -0.221219 1.18733e-17 -0.221219 1.06137 -1.12863e-17 0 0 1)
(1.09933 -0.220677 -8.07061e-18 -0.220677 1.05506 -8.92054e-18 0 0 1)
(1.10562 -0.219955 -7.02028e-18 -0.219955 1.04877 1.68243e-17 0 0 1)
(1.11189 -0.219054 -8.78931e-18 -0.219054 1.0425 2.32025e-18 0 0 1)
(1.11813 -0.217974 1.50707e-17 -0.217974 1.03626 -7.48952e-18 0 0 1)
(1.12434 -0.216716 -1.15311e-18 -0.216716 1.03005 -1.44839e-17 0 0 1)
(1.13051 -0.215281 -1.44019e-17 -0.215281 1.02388 2.14659e-17 0 0 1)
(1.13664 -0.213671 2.50572e-18 -0.213671 1.01776 3.2979e-18 0 0 1)
(1.14271 -0.211887 -3.35721e-20 -0.211887 1.01168 -4.55209e-20 0 0 1)
(1.14874 -0.209929 9.05438e-18 -0.209929 1.00566 -1.42161e-18 0 0 1)
(1.1547 -0.207801 4.38165e-18 -0.207801 0.999691 -8.05009e-18 0 0 1)
(1.1606 -0.205503 2.03654e-17 -0.205503 0.993789 -1.37472e-17 0 0 1)
(1.16644 -0.203037 -2.25565e-17 -0.203037 0.987954 -4.58727e-18 0 0 1)
(1.1722 -0.200406 -1.17498e-17 -0.200406 0.982193 1.20665e-17 0 0 1)
(1.17788 -0.197611 1.39964e-17 -0.197611 0.976509 -8.51064e-18 0 0 1)
(1.18349 -0.194656 -9.88955e-18 -0.194656 0.970907 1.5434e-17 0 0 1)
(1.189 -0.191541 -7.14501e-18 -0.191541 0.965391 4.00469e-18 0 0 1)
(1.19443 -0.18827 1.43205e-17 -0.18827 0.959967 -7.95286e-18 0 0 1)
(1.19975 -0.184846 5.29748e-18 -0.184846 0.954639 -7.44831e-18 0 0 1)
(1.20498 -0.181271 -1.88062e-18 -0.181271 0.94941 -3.62667e-18 0 0 1)
(1.21011 -0.177548 -7.31134e-18 -0.177548 0.944286 3.69142e-18 0 0 1)
(1.21512 -0.17368 5.30427e-18 -0.17368 0.93927 1.09858e-17 0 0 1)
(1.22003 -0.16967 2.38634e-20 -0.16967 0.934367 5.12814e-20 0 0 1)
(1.22481 -0.165523 1.65728e-17 -0.165523 0.92958 -3.07332e-18 0 0 1)
(1.22948 -0.16124 -1.81873e-17 -0.16124 0.924914 -8.1135e-19 0 0 1)
(1.23402 -0.156825 4.58188e-18 -0.156825 0.920371 1.10616e-17 0 0 1)
(1.23844 -0.152283 1.83778e-17 -0.152283 0.915957 -2.02826e-17 0 0 1)
(1.24272 -0.147617 -1.53267e-17 -0.147617 0.911674 5.78104e-18 0 0 1)
(1.24687 -0.14283 -7.68447e-18 -0.14283 0.907526 2.83393e-18 0 0 1)
(1.25088 -0.137926 -1.41216e-17 -0.137926 0.903517 9.25181e-18 0 0 1)
(1.25474 -0.132911 2.45591e-17 -0.132911 0.899649 -4.01746e-18 0 0 1)
(1.25847 -0.127786 6.83764e-20 -0.127786 0.895926 2.15668e-19 0 0 1)
(1.26204 -0.122558 -1.45538e-17 -0.122558 0.892351 8.47607e-18 0 0 1)
(1.26547 -0.117229 -1.09184e-18 -0.117229 0.888927 -3.81914e-18 0 0 1)
(1.26874 -0.111805 2.10393e-18 -0.111805 0.885656 7.77789e-18 0 0 1)
(1.27185 -0.10629 3.17437e-17 -0.10629 0.882541 -8.10209e-18 0 0 1)
(1.27481 -0.100688 -1.77958e-17 -0.100688 0.879585 -3.95581e-18 0 0 1)
(1.2776 -0.095004 -3.19869e-17 -0.095004 0.876791 7.08194e-18 0 0 1)
(1.28023 -0.0892425 1.93786e-17 -0.0892425 0.874159 1.25691e-17 0 0 1)
(1.2827 -0.0834081 7.27217e-18 -0.0834081 0.871694 -5.49549e-18 0 0 1)
(1.285 -0.0775058 -1.61204e-17 -0.0775058 0.869396 2.90844e-18 0 0 1)
(1.28713 -0.0715402 8.73414e-18 -0.0715402 0.867267 2.60764e-18 0 0 1)
(1.28908 -0.0655162 3.17835e-17 -0.0655162 0.86531 -8.93327e-18 0 0 1)
(1.29087 -0.0594389 -8.09595e-18 -0.0594389 0.863525 1.2478e-18 0 0 1)
(1.29248 -0.053313 -2.48951e-17 -0.053313 0.861915 -1.16434e-18 0 0 1)
(1.29391 -0.0471437 0 -0.0471437 0.860481 0 0 0 1)
(1.29517 -0.0409359 8.15245e-18 -0.0409359 0.859223 -7.87293e-19 0 0 1)
(1.29625 -0.0346947 2.4493e-17 -0.0346947 0.858143 -1.95601e-18 0 0 1)
(1.29715 -0.0284253 -8.68902e-18 -0.0284253 0.857241 -7.48663e-18 0 0 1)
(1.29787 -0.0221326 -1.61618e-17 -0.0221326 0.856519 4.78555e-18 0 0 1)
(1.29842 -0.0158219 2.45543e-17 -0.0158219 0.855977 -9.05259e-19 0 0 1)
(1.29878 -0.00949832 -1.72576e-19 -0.00949832 0.855616 -8.05558e-18 0 0 1)
(1.29896 -0.00316697 -1.63806e-17 -0.00316697 0.855435 6.03962e-20 0 0 1)
(0.858106 -0.00310387 -4.06593e-18 -0.00310388 1.29279 -2.90312e-20 0 0 1)
(0.858283 -0.00930909 -7.77113e-18 -0.00930909 1.29262 -1.599e-17 0 0 1)
(0.858638 -0.0155067 -2.99897e-21 -0.0155067 1.29226 -1.07056e-22 0 0 1)
(0.859169 -0.0216917 -1.21286e-18 -0.0216917 1.29173 2.36989e-17 0 0 1)
(0.859877 -0.027859 -7.17125e-18 -0.027859 1.29102 -1.63141e-17 0 0 1)
(0.86076 -0.0340035 4.10509e-18 -0.0340035 1.29014 3.23077e-19 0 0 1)
(0.861819 -0.0401204 -1.26193e-19 -0.0401204 1.28908 -1.17468e-20 0 0 1)
(0.863051 -0.0462045 8.87299e-20 -0.0462045 1.28785 9.53954e-21 0 0 1)
(0.864457 -0.0522509 -6.06031e-18 -0.0522509 1.28644 1.51979e-17 0 0 1)
(0.866036 -0.0582547 5.05127e-18 -0.0582547 1.28486 -7.29382e-18 0 0 1)
(0.867784 -0.064211 -7.41526e-20 -0.064211 1.28312 -1.12025e-20 0 0 1)
(0.869703 -0.0701149 9.46473e-18 -0.0701149 1.2812 1.76041e-17 0 0 1)
(0.871789 -0.0759617 -1.0718e-17 -0.0759617 1.27911 1.41416e-17 0 0 1)
(0.874041 -0.0817464 -9.76742e-19 -0.0817464 1.27686 -1.63092e-17 0 0 1)
(0.876458 -0.0874645 -1.1757e-17 -0.0874645 1.27444 -2.4698e-18 0 0 1)
(0.879036 -0.0931113 -1.74348e-18 -0.0931113 1.27186 7.71542e-18 0 0 1)
(0.881775 -0.0986821 3.69309e-18 -0.0986821 1.26912 -1.53828e-17 0 0 1)
(0.884672 -0.104172 5.88611e-18 -0.104172 1.26623 -6.6612e-18 0 0 1)
(0.887725 -0.109578 -3.96117e-18 -0.109578 1.26318 -1.0715e-18 0 0 1)
(0.890931 -0.114894 -7.81882e-18 -0.114894 1.25997 -2.2353e-18 0 0 1)
(0.894287 -0.120116 -2.25642e-18 -0.120116 1.25661 7.58134e-18 0 0 1)
(0.897791 -0.12524 -1.01327e-17 -0.12524 1.25311 5.08547e-18 0 0 1)
(0.901439 -0.130263 3.85796e-18 -0.130263 1.24946 1.28405e-18 0 0 1)
(0.90523 -0.135179 3.80383e-18 -0.135179 1.24567 1.32666e-18 0 0 1)
(0.90916 -0.139984 4.27214e-18 -0.139984 1.24174 -2.37013e-17 0 0 1)
(0.913225 -0.144676 -9.24525e-19 -0.144676 1.23767 -8.81737e-18 0 0 1)
(0.917423 -0.149249 -2.18689e-18 -0.149249 1.23348 1.61549e-17 0 0 1)
(0.921749 -0.153701 -1.79585e-17 -0.153701 1.22915 1.123e-18 0 0 1)
(0.926201 -0.158027 -6.85568e-18 -0.158027 1.2247 5.6584e-18 0 0 1)
(0.930774 -0.162225 3.31214e-18 -0.162225 1.22013 -7.18362e-18 0 0 1)
(0.935466 -0.16629 4.04214e-18 -0.16629 1.21543 1.06054e-17 0 0 1)
(0.940271 -0.17022 3.80992e-18 -0.17022 1.21063 1.06233e-17 0 0 1)
(0.945187 -0.174011 8.24853e-20 -0.174011 1.20571 4.12892e-20 0 0 1)
(0.95021 -0.177659 3.60166e-18 -0.177659 1.20069 -7.04254e-18 0 0 1)
(0.955334 -0.181163 3.78049e-18 -0.181163 1.19557 -6.94819e-18 0 0 1)
(0.960556 -0.184519 -1.50789e-20 -0.184519 1.19034 -8.37399e-21 0 0 1)
(0.965872 -0.187725 3.9624e-18 -0.187725 1.18503 -6.84599e-18 0 0 1)
(0.971278 -0.190778 -1.49545e-17 -0.190778 1.17962 9.522e-18 0 0 1)
(0.976768 -0.193675 -1.51184e-17 -0.193675 1.17413 9.28946e-18 0 0 1)
(0.982339 -0.196414 8.47476e-18 -0.196414 1.16856 -1.33585e-17 0 0 1)
(0.987985 -0.198992 2.22499e-17 -0.198992 1.16291 -4.3677e-18 0 0 1)
(0.993704 -0.201409 0 -0.201409 1.1572 0 0 0 1)
(0.999488 -0.203661 -2.35924e-18 -0.203661 1.15141 1.76212e-17 0 0 1)
(1.00534 -0.205747 -4.67032e-18 -0.205747 1.14556 6.38453e-18 0 0 1)
(1.01124 -0.207665 9.42003e-18 -0.207665 1.13966 -1.27096e-17 0 0 1)
(1.0172 -0.209414 -8.01723e-18 -0.209414 1.1337 3.84269e-18 0 0 1)
(1.0232 -0.210993 1.46472e-18 -0.210993 1.1277 1.11903e-17 0 0 1)
(1.02925 -0.212399 9.89731e-18 -0.212399 1.12165 -1.23416e-17 0 0 1)
(1.03533 -0.213631 -6.21633e-18 -0.213631 1.11557 -5.15756e-18 0 0 1)
(1.04145 -0.21469 -5.07238e-18 -0.21469 1.10945 6.07006e-18 0 0 1)
(1.04759 -0.215573 -9.07696e-18 -0.215573 1.10331 -7.97941e-18 0 0 1)
(1.05376 -0.216281 -3.67562e-18 -0.216281 1.09714 -1.39922e-17 0 0 1)
(1.05994 -0.216812 -8.33324e-18 -0.216812 1.09096 3.04899e-18 0 0 1)
(1.06614 -0.217167 -1.68017e-17 -0.217167 1.08476 5.81164e-18 0 0 1)
(1.07235 -0.217344 2.21612e-17 -0.217344 1.07855 -2.25824e-17 0 0 1)
(1.07855 -0.217344 1.6985e-17 -0.217344 1.07235 -5.30492e-18 0 0 1)
(1.08476 -0.217167 -3.40983e-17 -0.217167 1.06614 1.01443e-17 0 0 1)
(1.09096 -0.216812 -3.07454e-18 -0.216812 1.05994 8.30579e-18 0 0 1)
(1.09714 -0.216281 8.9516e-19 -0.216281 1.05376 -2.25908e-17 0 0 1)
(1.10331 -0.215573 5.35575e-18 -0.215573 1.04759 6.09242e-18 0 0 1)
(1.10945 -0.21469 -1.72866e-17 -0.21469 1.04145 4.11905e-18 0 0 1)
(1.11557 -0.213631 7.72988e-18 -0.213631 1.03533 9.3167e-18 0 0 1)
(1.12165 -0.212399 4.73469e-18 -0.212399 1.02925 -1.93369e-17 0 0 1)
(1.1277 -0.210993 8.70576e-18 -0.210993 1.0232 -1.71021e-18 0 0 1)
(1.1337 -0.209414 -1.01262e-17 -0.209414 1.0172 1.2822e-17 0 0 1)
(1.13966 -0.207665 9.58854e-18 -0.207665 1.01124 1.30013e-17 0 0 1)
(1.14556 -0.205747 -2.32451e-18 -0.205747 1.00534 -3.24793e-18 0 0 1)
(1.15141 -0.203661 -4.10593e-20 -0.203661 0.999488 -5.91367e-20 0 0 1)
(1.1572 -0.201409 -4.48089e-18 -0.201409 0.993704 -6.65458e-18 0 0 1)
(1.16291 -0.198992 -1.32544e-17 -0.198992 0.987985 -5.83367e-18 0 0 1)
(1.16856 -0.196414 1.33492e-17 -0.196414 0.982339 -8.48934e-18 0 0 1)
(1.17413 -0.193675 1.80942e-17 -0.193675 0.976768 -1.5889e-17 0 0 1)
(1.17962 -0.190778 -1.77094e-17 -0.190778 0.971278 1.15548e-18 0 0 1)
(1.18503 -0.187725 -1.65977e-17 -0.187725 0.965872 1.87495e-17 0 0 1)
(1.19034 -0.184519 8.90252e-18 -0.184519 0.960556 -2.61711e-19 0 0 1)
(1.19557 -0.181163 1.7735e-20 -0.181163 0.955334 3.30379e-20 0 0 1)
(1.20069 -0.177659 7.02666e-18 -0.177659 0.95021 -3.63229e-18 0 0 1)
(1.20571 -0.174011 2.12076e-17 -0.174011 0.945187 -1.06464e-17 0 0 1)
(1.21063 -0.17022 1.76662e-18 -0.17022 0.940271 3.65887e-18 0 0 1)
(1.21543 -0.16629 -1.09352e-17 -0.16629 0.935466 1.39977e-17 0 0 1)
(1.22013 -0.162225 1.64731e-18 -0.162225 0.930774 3.67634e-18 0 0 1)
(1.2247 -0.158027 -4.79878e-18 -0.158027 0.926201 -1.11329e-17 0 0 1)
(1.22915 -0.153701 -5.78442e-18 -0.153701 0.921749 6.7049e-18 0 0 1)
(1.23348 -0.149249 2.13344e-20 -0.149249 0.917423 5.36605e-20 0 0 1)
(1.23767 -0.144676 7.40105e-18 -0.144676 0.913225 -2.79151e-18 0 0 1)
(1.24174 -0.139984 -1.3937e-18 -0.139984 0.90916 -3.81972e-18 0 0 1)
(1.24567 -0.135179 -7.47207e-18 -0.135179 0.90523 2.59532e-18 0 0 1)
(1.24946 -0.130263 1.6248e-17 -0.130263 0.901439 -1.27743e-18 0 0 1)
(1.25311 -0.12524 4.96351e-20 -0.12524 0.897791 1.56555e-19 0 0 1)
(1.25661 -0.120116 -2.15815e-17 -0.120116 0.894287 1.06264e-17 0 0 1)
(1.25997 -0.114894 6.4904e-18 -0.114894 0.890931 -6.07392e-18 0 0 1)
(1.26318 -0.109578 1.187e-17 -0.109578 0.887725 1.35885e-17 0 0 1)
(1.26623 -0.104172 -1.00556e-18 -0.104172 0.884672 -3.93973e-18 0 0 1)
(1.26912 -0.0986821 -1.72509e-17 -0.0986821 0.881775 -4.08814e-18 0 0 1)
(1.27186 -0.0931113 1.62906e-17 -0.0931113 0.879036 3.33562e-19 0 0 1)
(1.27444 -0.0874645 9.42137e-18 -0.0874645 0.876458 6.37294e-18 0 0 1)
(1.27686 -0.0817464 -2.32988e-17 -0.0817464 0.874041 4.50256e-18 0 0 1)
(1.27911 -0.0759617 0 -0.0759617 0.871789 0 0 0 1)
(1.2812 -0.0701149 2.65277e-18 -0.0701149 0.869703 1.60083e-17 0 0 1)
(1.28312 -0.064211 2.3457e-17 -0.064211 0.867784 -3.58885e-18 0 0 1)
(1.28486 -0.0582547 -8.91118e-18 -0.0582547 0.866036 -6.79773e-18 0 0 1)
(1.28644 -0.0522509 -2.3075e-17 -0.0522509 0.864457 6.81074e-18 0 0 1)
(1.28785 -0.0462045 7.43292e-18 -0.0462045 0.863051 -4.86106e-18 0 0 1)
(1.28908 -0.0401204 7.4965e-18 -0.0401204 0.861819 -4.80893e-18 0 0 1)
(1.29014 -0.0340035 7.5687e-18 -0.0340035 0.86076 -4.64682e-18 0 0 1)
(1.29102 -0.027859 -5.1739e-19 -0.027859 0.859877 -8.04045e-18 0 0 1)
(1.29173 -0.0216917 2.01262e-19 -0.0216917 0.859169 4.02351e-18 0 0 1)
(1.29226 -0.0155067 0 -0.0155067 0.858638 0 0 0 1)
(1.29262 -0.00930909 -1.72569e-19 -0.00930909 0.858283 -8.05523e-18 0 0 1)
(1.29279 -0.00310388 0 -0.00310387 0.858106 0 0 0 1)
(0.861886 -0.0030346 6.47955e-20 -0.0030346 1.28687 -7.64347e-18 0 0 1)
(0.862059 -0.00910132 5.25443e-20 -0.00910132 1.2867 1.12563e-21 0 0 1)
(0.862406 -0.0151606 -1.59828e-17 -0.0151606 1.28635 -5.70826e-19 0 0 1)
(0.862925 -0.0212075 -8.31806e-18 -0.0212075 1.28583 7.23721e-18 0 0 1)
(0.863617 -0.0272372 1.19441e-17 -0.0272372 1.28514 7.68584e-19 0 0 1)
(0.864481 -0.0332446 -6.6756e-18 -0.0332446 1.28428 -1.58601e-17 0 0 1)
(0.865516 -0.0392249 -4.03154e-18 -0.0392249 1.28324 -3.75285e-19 0 0 1)
(0.866721 -0.0451732 -9.48829e-18 -0.0451732 1.28204 1.43555e-17 0 0 1)
(0.868096 -0.0510847 3.01541e-18 -0.0510847 1.28066 8.06821e-18 0 0 1)
(0.869638 -0.0569545 8.03945e-18 -0.0569545 1.27912 1.09737e-18 0 0 1)
(0.871348 -0.0627778 3.36769e-18 -0.0627778 1.27741 -2.26826e-17 0 0 1)
(0.873224 -0.06855 2.58277e-18 -0.06855 1.27553 -1.5068e-17 0 0 1)
(0.875263 -0.0742662 2.39693e-18 -0.0742662 1.27349 3.1501e-17 0 0 1)
(0.877465 -0.0799219 -1.54182e-18 -0.0799219 1.27129 7.48703e-18 0 0 1)
(0.879828 -0.0855124 3.17856e-18 -0.0855124 1.26893 -1.49534e-17 0 0 1)
(0.882349 -0.0910331 7.80923e-18 -0.0910331 1.26641 1.75728e-18 0 0 1)
(0.885027 -0.0964796 3.8505e-18 -0.0964796 1.26373 9.24424e-19 0 0 1)
(0.887859 -0.101847 -1.81396e-18 -0.101847 1.2609 7.42579e-18 0 0 1)
(0.890844 -0.107132 -3.97209e-18 -0.107132 1.25791 1.47624e-17 0 0 1)
(0.893978 -0.112329 1.96534e-17 -0.112329 1.25478 -1.02813e-17 0 0 1)
(0.897259 -0.117435 1.00641e-19 -0.117435 1.2515 3.03331e-20 0 0 1)
(0.900685 -0.122445 3.75944e-18 -0.122445 1.24807 1.19191e-18 0 0 1)
(0.904252 -0.127355 1.38755e-17 -0.127355 1.24451 -3.43779e-18 0 0 1)
(0.907958 -0.132161 1.24664e-18 -0.132161 1.2408 8.53008e-18 0 0 1)
(0.9118 -0.13686 -3.7694e-18 -0.13686 1.23696 -1.37534e-18 0 0 1)
(0.915775 -0.141447 -7.39644e-18 -0.141447 1.23298 -2.81905e-18 0 0 1)
(0.919879 -0.145918 -2.76566e-18 -0.145918 1.22888 7.12613e-18 0 0 1)
(0.924108 -0.15027 1.88841e-20 -0.15027 1.22465 7.8221e-21 0 0 1)
(0.928461 -0.1545 1.57392e-17 -0.1545 1.2203 -2.65101e-17 0 0 1)
(0.932932 -0.158604 6.80726e-18 -0.158604 1.21583 -5.32579e-18 0 0 1)
(0.937519 -0.162579 -6.49742e-18 -0.162579 1.21124 1.38381e-17 0 0 1)
(0.942217 -0.166421 -6.57353e-20 -0.166421 1.20654 -3.17392e-20 0 0 1)
(0.947024 -0.170127 1.57449e-19 -0.170127 1.20173 8.6267e-18 0 0 1)
(0.951934 -0.173694 -3.57445e-18 -0.173694 1.19682 6.75677e-18 0 0 1)
(0.956944 -0.17712 -3.44634e-18 -0.17712 1.19181 -1.05255e-17 0 0 1)
(0.962049 -0.180401 7.20997e-18 -0.180401 1.18671 -4.73931e-18 0 0 1)
(0.967247 -0.183535 0 -0.183535 1.18151 0 0 0 1)
(0.972531 -0.18652 6.90157e-18 -0.18652 1.17623 4.09489e-18 0 0 1)
(0.977899 -0.189352 6.78015e-18 -0.189352 1.17086 4.15488e-18 0 0 1)
(0.983346 -0.19203 8.06689e-18 -0.19203 1.16541 -1.29864e-17 0 0 1)
(0.988866 -0.194551 6.74676e-18 -0.194551 1.15989 4.40426e-18 0 0 1)
(0.994457 -0.196913 -8.58218e-18 -0.196913 1.1543 1.26513e-17 0 0 1)
(1.00011 -0.199115 -8.67562e-18 -0.199115 1.14865 1.25874e-17 0 0 1)
(1.00583 -0.201155 6.44035e-18 -0.201155 1.14293 4.6093e-18 0 0 1)
(1.0116 -0.20303 -7.68978e-18 -0.20303 1.13716 3.82641e-18 0 0 1)
(1.01742 -0.20474 -3.83585e-20 -0.20474 1.13133 -2.91444e-20 0 0 1)
(1.02329 -0.206283 1.10765e-17 -0.206283 1.12546 -1.03796e-18 0 0 1)
(1.02921 -0.207658 -1.27292e-17 -0.207658 1.11955 9.37568e-18 0 0 1)
(1.03515 -0.208863 1.94981e-17 -0.208863 1.1136 -2.3551e-17 0 0 1)
(1.04113 -0.209898 1.96971e-18 -0.209898 1.10762 -8.36988e-18 0 0 1)
(1.04714 -0.210762 -1.21857e-17 -0.210762 1.10162 1.98197e-17 0 0 1)
(1.05317 -0.211454 -2.13322e-18 -0.211454 1.09559 8.3778e-18 0 0 1)
(1.05922 -0.211973 -5.17438e-18 -0.211973 1.08954 5.62624e-18 0 0 1)
(1.06528 -0.21232 5.26896e-18 -0.21232 1.08348 -5.53764e-18 0 0 1)
(1.07134 -0.212493 1.64213e-17 -0.212493 1.07741 -5.27857e-18 0 0 1)
(1.07741 -0.212493 -2.18205e-17 -0.212493 1.07134 1.05293e-17 0 0 1)
(1.08348 -0.21232 -5.54572e-18 -0.21232 1.06528 5.26052e-18 0 0 1)
(1.08954 -0.211973 1.67039e-17 -0.211973 1.05922 -4.49352e-18 0 0 1)
(1.09559 -0.211454 2.94785e-18 -0.211454 1.05317 -8.13501e-18 0 0 1)
(1.10162 -0.210762 6.93999e-20 -0.210762 1.04714 7.89453e-20 0 0 1)
(1.10762 -0.209898 2.56133e-18 -0.209898 1.04113 2.99893e-18 0 0 1)
(1.1136 -0.208863 5.88636e-18 -0.208863 1.03515 -4.87621e-18 0 0 1)
(1.11955 -0.207658 -3.45051e-18 -0.207658 1.02921 7.90002e-18 0 0 1)
(1.12546 -0.206283 6.02591e-18 -0.206283 1.02329 -4.70268e-18 0 0 1)
(1.13133 -0.20474 1.82429e-17 -0.20474 1.01742 -1.38938e-17 0 0 1)
(1.13716 -0.20303 -7.53324e-18 -0.20303 1.0116 1.55417e-17 0 0 1)
(1.14293 -0.201155 -1.86815e-17 -0.201155 1.00583 1.32983e-17 0 0 1)
(1.14865 -0.199115 4.58597e-18 -0.199115 1.00011 6.60505e-18 0 0 1)
(1.1543 -0.196913 -4.4708e-18 -0.196913 0.994457 -6.63959e-18 0 0 1)
(1.15989 -0.194551 4.39548e-18 -0.194551 0.988866 6.73331e-18 0 0 1)
(1.16541 -0.19203 2.13657e-18 -0.19203 0.983346 3.37734e-18 0 0 1)
(1.17086 -0.189352 -4.14649e-18 -0.189352 0.977899 -6.76646e-18 0 0 1)
(1.17623 -0.18652 2.5131e-18 -0.18652 0.972531 -1.07442e-17 0 0 1)
(1.18151 -0.183535 1.72432e-17 -0.183535 0.967247 -6.70591e-19 0 0 1)
(1.18671 -0.180401 1.93035e-18 -0.180401 0.962049 3.47594e-18 0 0 1)
(1.19181 -0.17712 -1.91504e-18 -0.17712 0.956944 -3.56746e-18 0 0 1)
(1.19682 -0.173694 1.8303e-18 -0.173694 0.951934 3.52964e-18 0 0 1)
(1.20173 -0.170127 -3.5921e-18 -0.170127 0.947024 -7.17611e-18 0 0 1)
(1.20654 -0.166421 1.02864e-17 -0.166421 0.942217 -1.38553e-17 0 0 1)
(1.21124 -0.162579 1.35496e-20 -0.162579 0.937519 2.91181e-20 0 0 1)
(1.21583 -0.158604 -2.09372e-17 -0.158604 0.932932 9.35281e-18 0 0 1)
(1.2203 -0.1545 -1.40244e-17 -0.1545 0.928461 6.08486e-18 0 0 1)
(1.22465 -0.15027 2.11633e-17 -0.15027 0.924108 -8.82934e-18 0 0 1)
(1.22888 -0.145918 1.57061e-17 -0.145918 0.919879 -1.87463e-18 0 0 1)
(1.23298 -0.141447 -2.1437e-17 -0.141447 0.915775 8.14228e-18 0 0 1)
(1.23696 -0.13686 -9.92786e-18 -0.13686 0.9118 -4.90919e-18 0 0 1)
(1.2408 -0.132161 -2.63073e-18 -0.132161 0.907958 -7.54285e-18 0 0 1)
(1.24451 -0.127355 2.3e-17 -0.127355 0.904252 -3.50933e-18 0 0 1)
(1.24807 -0.122445 -2.37764e-18 -0.122445 0.900685 -7.49939e-18 0 0 1)
(1.2515 -0.117435 -2.08205e-17 -0.117435 0.897259 1.03837e-17 0 0 1)
(1.25478 -0.112329 2.31292e-17 -0.112329 0.893978 -2.52109e-18 0 0 1)
(1.25791 -0.107132 2.21096e-20 -0.107132 0.890844 8.17351e-20 0 0 1)
(1.2609 -0.101847 -1.68142e-17 -0.101847 0.887859 -4.06146e-18 0 0 1)
(1.26373 -0.0964796 1.22691e-20 -0.0964796 0.885027 5.11042e-20 0 0 1)
(1.26641 -0.0910331 1.74222e-18 -0.0910331 0.882349 7.74229e-18 0 0 1)
(1.26893 -0.0855124 5.85108e-18 -0.0855124 0.879828 -9.3278e-18 0 0 1)
(1.27129 -0.0799219 -8.27284e-18 -0.0799219 0.877465 -2.48373e-18 0 0 1)
(1.27349 -0.0742662 1.57383e-17 -0.0742662 0.875263 1.13094e-18 0 0 1)
(1.27553 -0.06855 8.20045e-18 -0.06855 0.873224 2.73048e-18 0 0 1)
(1.27741 -0.0627778 -1.45299e-17 -0.0627778 0.871348 6.16302e-18 0 0 1)
(1.27912 -0.0569545 -1.07545e-18 -0.0569545 0.869638 -7.87889e-18 0 0 1)
(1.28066 -0.0510847 -1.42058e-17 -0.0510847 0.868096 9.79665e-18 0 0 1)
(1.28204 -0.0451732 -1.47727e-17 -0.0451732 0.866721 5.60767e-18 0 0 1)
(1.28324 -0.0392249 7.98368e-18 -0.0392249 0.865516 3.29691e-18 0 0 1)
(1.28428 -0.0332446 1.46136e-17 -0.0332446 0.864481 -9.16326e-18 0 0 1)
(1.28514 -0.0272372 7.62964e-18 -0.0272372 0.863617 -4.64623e-19 0 0 1)
(1.28583 -0.0212075 -4.00919e-19 -0.0212075 0.862925 -8.01493e-18 0 0 1)
(1.28635 -0.0151606 0 -0.0151606 0.862406 0 0 0 1)
(1.2867 -0.00910132 0 -0.00910132 0.862059 0 0 0 1)
(1.28687 -0.0030346 0 -0.0030346 0.861886 0 0 0 1)
(0.864924 -0.00297198 -4.01336e-18 -0.00297198 1.28114 -2.86558e-20 0 0 1)
(0.865094 -0.0089135 -2.65856e-19 -0.0089135 1.28097 1.47771e-17 0 0 1)
(0.865433 -0.0148478 3.43272e-18 -0.0148478 1.28063 1.49114e-17 0 0 1)
(0.865942 -0.0207699 1.44675e-18 -0.0207699 1.28012 -2.95234e-17 0 0 1)
(0.866619 -0.0266751 8.89749e-18 -0.0266751 1.27944 -1.42374e-17 0 0 1)
(0.867465 -0.0325586 -1.02502e-17 -0.0325586 1.2786 2.88435e-17 0 0 1)
(0.868479 -0.0384155 -2.98904e-20 -0.0384155 1.27758 -2.78243e-21 0 0 1)
(0.869659 -0.044241 9.54021e-18 -0.044241 1.2764 -1.38389e-17 0 0 1)
(0.871005 -0.0500305 1.66832e-18 -0.0500305 1.27506 -1.46855e-17 0 0 1)
(0.872516 -0.0557792 3.93559e-18 -0.0557792 1.27355 5.37201e-19 0 0 1)
(0.874191 -0.0614823 1.34041e-17 -0.0614823 1.27187 1.69721e-17 0 0 1)
(0.876028 -0.0671354 -7.77807e-18 -0.0671354 1.27004 -1.28892e-18 0 0 1)
(0.878025 -0.0727337 -2.57423e-18 -0.0727337 1.26804 1.45536e-17 0 0 1)
(0.880182 -0.0782726 -9.95322e-20 -0.0782726 1.26588 -1.94289e-20 0 0 1)
(0.882496 -0.0837477 -8.39711e-19 -0.0837477 1.26357 -1.52784e-17 0 0 1)
(0.884965 -0.0891545 0 -0.0891545 1.2611 0 0 0 1)
(0.887587 -0.0944886 -3.90257e-18 -0.0944886 1.25848 -9.36924e-19 0 0 1)
(0.890361 -0.0997456 0 -0.0997456 1.2557 0 0 0 1)
(0.893284 -0.104921 1.5231e-17 -0.104921 1.25278 -2.65011e-17 0 0 1)
(0.896353 -0.110011 7.63817e-18 -0.110011 1.24971 2.18365e-18 0 0 1)
(0.899567 -0.115012 -1.62441e-17 -0.115012 1.2465 2.59763e-17 0 0 1)
(0.902922 -0.119918 4.35023e-18 -0.119918 1.24314 -1.41252e-17 0 0 1)
(0.906416 -0.124727 -7.51993e-18 -0.124727 1.23965 -2.50287e-18 0 0 1)
(0.910045 -0.129434 -1.35238e-17 -0.129434 1.23602 2.65883e-17 0 0 1)
(0.913808 -0.134036 3.67506e-18 -0.134036 1.23226 1.34092e-18 0 0 1)
(0.9177 -0.138528 8.99458e-18 -0.138528 1.22836 -1.23883e-17 0 0 1)
(0.92172 -0.142907 3.66317e-18 -0.142907 1.22434 1.4564e-18 0 0 1)
(0.925862 -0.147169 7.28399e-18 -0.147169 1.2202 3.01713e-18 0 0 1)
(0.930125 -0.151312 -3.68564e-18 -0.151312 1.21594 -1.58868e-18 0 0 1)
(0.934504 -0.155331 6.51497e-20 -0.155331 1.21156 2.91925e-20 0 0 1)
(0.938996 -0.159224 -6.18945e-18 -0.159224 1.20707 1.3421e-17 0 0 1)
(0.943598 -0.162986 -2.70335e-20 -0.162986 1.20247 -1.30526e-20 0 0 1)
(0.948305 -0.166616 9.06841e-20 -0.166616 1.19776 4.53931e-20 0 0 1)
(0.953113 -0.17011 -1.03481e-17 -0.17011 1.19295 1.12823e-17 0 0 1)
(0.95802 -0.173465 1.04817e-17 -0.173465 1.18804 -1.11476e-17 0 0 1)
(0.96302 -0.176678 7.21978e-18 -0.176678 1.18304 -1.28961e-17 0 0 1)
(0.96811 -0.179748 7.31525e-18 -0.179748 1.17795 -1.28421e-17 0 0 1)
(0.973286 -0.182671 2.58173e-20 -0.182671 1.17278 1.53181e-20 0 0 1)
(0.978543 -0.185444 -2.22276e-17 -0.185444 1.16752 2.10463e-17 0 0 1)
(0.983877 -0.188067 7.83316e-18 -0.188067 1.16219 -1.25331e-17 0 0 1)
(0.989284 -0.190536 1.54456e-18 -0.190536 1.15678 -1.66415e-17 0 0 1)
(0.994759 -0.19285 -8.29688e-18 -0.19285 1.1513 1.22309e-17 0 0 1)
(1.0003 -0.195006 0 -0.195006 1.14577 0 0 0 1)
(1.0059 -0.197004 -2.14897e-18 -0.197004 1.14017 1.66365e-17 0 0 1)
(1.01155 -0.198841 -2.41598e-20 -0.198841 1.13451 -1.7818e-20 0 0 1)
(1.01725 -0.200515 2.47326e-17 -0.200515 1.12881 2.30205e-19 0 0 1)
(1.023 -0.202026 -9.06842e-18 -0.202026 1.12306 1.16704e-17 0 0 1)
(1.02879 -0.203373 6.11554e-18 -0.203373 1.11727 4.92822e-18 0 0 1)
(1.03462 -0.204553 6.1457e-18 -0.204553 1.11145 5.09896e-18 0 0 1)
(1.04047 -0.205567 -6.01797e-18 -0.205567 1.10559 -5.13983e-18 0 0 1)
(1.04636 -0.206413 1.27568e-17 -0.206413 1.09971 -8.46396e-18 0 0 1)
(1.05226 -0.20709 2.92324e-18 -0.20709 1.0938 2.64472e-18 0 0 1)
(1.05818 -0.207599 -1.00861e-17 -0.207599 1.08788 1.08029e-17 0 0 1)
(1.06412 -0.207938 5.67138e-18 -0.207938 1.08195 5.43348e-18 0 0 1)
(1.07006 -0.208108 1.32191e-17 -0.208108 1.076 -7.72189e-18 0 0 1)
(1.076 -0.208108 0 -0.208108 1.07006 0 0 0 1)
(1.08195 -0.207938 1.09085e-17 -0.207938 1.06412 1.13861e-17 0 0 1)
(1.08788 -0.207599 -8.09622e-18 -0.207599 1.05818 1.29932e-17 0 0 1)
(1.0938 -0.20709 5.26931e-18 -0.20709 1.05226 5.82422e-18 0 0 1)
(1.09971 -0.206413 1.11336e-17 -0.206413 1.04636 -9.71988e-18 0 0 1)
(1.10559 -0.205567 -6.08508e-18 -0.205567 1.04047 1.56322e-17 0 0 1)
(1.11145 -0.204553 -5.09896e-18 -0.204553 1.03462 -6.1457e-18 0 0 1)
(1.11727 -0.203373 1.90051e-17 -0.203373 1.02879 2.9822e-20 0 0 1)
(1.12306 -0.202026 2.42944e-18 -0.202026 1.023 3.10447e-18 0 0 1)
(1.12881 -0.200515 0 -0.200515 1.01725 0 0 0 1)
(1.13451 -0.198841 -4.6796e-18 -0.198841 1.01155 -6.34515e-18 0 0 1)
(1.14017 -0.197004 9.21859e-18 -0.197004 1.0059 1.28807e-17 0 0 1)
(1.14577 -0.195006 -5.32573e-18 -0.195006 1.0003 1.82436e-17 0 0 1)
(1.1513 -0.19285 -5.66414e-20 -0.19285 0.994759 -8.41183e-20 0 0 1)
(1.15678 -0.190536 1.89072e-17 -0.190536 0.989284 1.92625e-18 0 0 1)
(1.16219 -0.188067 -1.2501e-17 -0.188067 0.983877 7.8839e-18 0 0 1)
(1.16752 -0.185444 2.04404e-18 -0.185444 0.978543 3.33557e-18 0 0 1)
(1.17278 -0.182671 1.67594e-17 -0.182671 0.973286 -7.17413e-19 0 0 1)
(1.17795 -0.179748 0 -0.179748 0.96811 0 0 0 1)
(1.18304 -0.176678 -5.17119e-18 -0.176678 0.96302 2.11298e-17 0 0 1)
(1.18804 -0.173465 -1.41985e-20 -0.173465 0.95802 -2.64496e-20 0 0 1)
(1.19295 -0.17011 4.66835e-20 -0.17011 0.953113 9.00266e-20 0 0 1)
(1.19776 -0.166616 -1.34373e-20 -0.166616 0.948305 -2.68443e-20 0 0 1)
(1.20247 -0.162986 1.33313e-17 -0.162986 0.943598 -6.38046e-18 0 0 1)
(1.20707 -0.159224 -3.32631e-18 -0.159224 0.938996 -7.1481e-18 0 0 1)
(1.21156 -0.155331 3.25309e-18 -0.155331 0.934504 7.26002e-18 0 0 1)
(1.21594 -0.151312 4.70951e-18 -0.151312 0.930125 1.09258e-17 0 0 1)
(1.2202 -0.147169 6.06158e-18 -0.147169 0.925862 1.46339e-17 0 0 1)
(1.22434 -0.142907 -2.91281e-18 -0.142907 0.92172 -7.32633e-18 0 0 1)
(1.22836 -0.138528 -1.66256e-17 -0.138528 0.9177 -2.1229e-18 0 0 1)
(1.23226 -0.134036 -1.25258e-17 -0.134036 0.913808 8.78857e-18 0 0 1)
(1.23602 -0.129434 1.526e-17 -0.129434 0.910045 -1.12539e-18 0 0 1)
(1.23965 -0.124727 1.77964e-17 -0.124727 0.906416 6.66953e-18 0 0 1)
(1.24314 -0.119918 -4.78704e-18 -0.119918 0.902922 -1.5099e-17 0 0 1)
(1.2465 -0.115012 3.43336e-18 -0.115012 0.899567 1.13914e-17 0 0 1)
(1.24971 -0.110011 3.27035e-18 -0.110011 0.896353 1.14393e-17 0 0 1)
(1.25278 -0.104921 -1.83894e-17 -0.104921 0.893284 -1.1382e-17 0 0 1)
(1.2557 -0.0997456 9.67475e-19 -0.0997456 0.890361 3.79053e-18 0 0 1)