/*--------------------------------*- C++ -*----------------------------------*\
| =========                 |                                                 |
| \\      /  F ield         | OpenFOAM: The Open Source CFD Toolbox           |
|  \\    /   O peration     | Version:  2312                                  |
|   \\  /    A nd           | Website:  www.openfoam.com                      |
|    \\/     M anipulation  |                                                 |
\*---------------------------------------------------------------------------*/
FoamFile
{
    version     2.0;
    format      ascii;
    arch        "LSB;label=32;scalar=64";
    class       volVectorField;
    location    "60";
    object      U;
}
// * * * * * * * * * * * * * * * * * * * * * * * * * * * * * * * * * * * * * //

dimensions      [0 1 -1 0 0 0 0];

internalField   nonuniform List<vector> 
12870
(
(0.0532872 0.000380476 0)
(0.0532763 0.00114135 0)
(0.0532546 0.00190199 0)
(0.053222 0.00266225 0)
(0.0531786 0.00342196 0)
(0.0531243 0.00418097 0)
(0.0530592 0.00493913 0)
(0.0529832 0.00569629 0)
(0.0528965 0.00645228 0)
(0.0527989 0.00720695 0)
(0.0526907 0.00796016 0)
(0.0525716 0.00871174 0)
(0.0524419 0.00946155 0)
(0.0523014 0.0102094 0)
(0.0521503 0.0109552 0)
(0.0519885 0.0116988 0)
(0.0518162 0.01244 0)
(0.0516333 0.0131786 0)
(0.0514398 0.0139146 0)
(0.0512359 0.0146477 0)
(0.0510215 0.0153778 0)
(0.0507967 0.0161048 0)
(0.0505616 0.0168285 0)
(0.0503161 0.0175488 0)
(0.0500604 0.0182655 0)
(0.0497945 0.0189784 0)
(0.0495184 0.0196876 0)
(0.0492322 0.0203926 0)
(0.048936 0.0210936 0)
(0.0486298 0.0217902 0)
(0.0483137 0.0224824 0)
(0.0479877 0.02317 0)
(0.047652 0.0238529 0)
(0.0473065 0.0245309 0)
(0.0469514 0.0252039 0)
(0.0465867 0.0258718 0)
(0.0462125 0.0265344 0)
(0.0458289 0.0271915 0)
(0.045436 0.0278432 0)
(0.0450337 0.0284892 0)
(0.0446223 0.0291293 0)
(0.0442018 0.0297635 0)
(0.0437723 0.0303917 0)
(0.0433339 0.0310136 0)
(0.0428866 0.0316292 0)
(0.0424306 0.0322384 0)
(0.0419659 0.032841 0)
(0.0414927 0.0334369 0)
(0.041011 0.034026 0)
(0.0405209 0.0346081 0)
(0.0400226 0.0351832 0)
(0.0395161 0.0357511 0)
(0.0390016 0.0363118 0)
(0.0384791 0.036865 0)
(0.0379488 0.0374107 0)
(0.0374107 0.0379488 0)
(0.036865 0.0384791 0)
(0.0363118 0.0390016 0)
(0.0357511 0.0395161 0)
(0.0351832 0.0400226 0)
(0.0346081 0.0405209 0)
(0.034026 0.041011 0)
(0.0334369 0.0414927 0)
(0.032841 0.0419659 0)
(0.0322384 0.0424306 0)
(0.0316292 0.0428866 0)
(0.0310136 0.0433339 0)
(0.0303917 0.0437723 0)
(0.0297635 0.0442018 0)
(0.0291293 0.0446223 0)
(0.0284892 0.0450337 0)
(0.0278432 0.045436 0)
(0.0271915 0.0458289 0)
(0.0265344 0.0462125 0)
(0.0258718 0.0465867 0)
(0.0252039 0.0469514 0)
(0.0245309 0.0473065 0)
(0.0238529 0.047652 0)
(0.02317 0.0479877 0)
(0.0224824 0.0483137 0)
(0.0217902 0.0486298 0)
(0.0210936 0.048936 0)
(0.0203926 0.0492322 0)
(0.0196876 0.0495184 0)
(0.0189785 0.0497945 0)
(0.0182655 0.0500604 0)
(0.0175488 0.0503161 0)
(0.0168285 0.0505616 0)
(0.0161048 0.0507967 0)
(0.0153778 0.0510215 0)
(0.0146477 0.0512359 0)
(0.0139146 0.0514398 0)
(0.0131786 0.0516333 0)
(0.01244 0.0518162 0)
(0.0116988 0.0519885 0)
(0.0109552 0.0521503 0)
(0.0102094 0.0523014 0)
(0.00946155 0.0524419 0)
(0.00871174 0.0525716 0)
(0.00796016 0.0526907 0)
(0.00720695 0.0527989 0)
(0.00645228 0.0528965 0)
(0.00569629 0.0529832 0)
(0.00493913 0.0530592 0)
(0.00418097 0.0531243 0)
(0.00342196 0.0531786 0)
(0.00266225 0.053222 0)
(0.00190199 0.0532546 0)
(0.00114135 0.0532763 0)
(0.000380476 0.0532872 0)
(0.0530391 0.000378705 0)
(0.0530283 0.00113604 0)
(0.0530066 0.00189314 0)
(0.0529742 0.00264985 0)
(0.052931 0.00340603 0)
(0.0528769 0.00416151 0)
(0.0528121 0.00491614 0)
(0.0527365 0.00566976 0)
(0.0526502 0.00642224 0)
(0.0525531 0.0071734 0)
(0.0524453 0.0079231 0)
(0.0523269 0.00867118 0)
(0.0521977 0.0094175 0)
(0.0520579 0.0101619 0)
(0.0519075 0.0109042 0)
(0.0517465 0.0116443 0)
(0.0515749 0.012382 0)
(0.0513929 0.0131172 0)
(0.0512003 0.0138498 0)
(0.0509973 0.0145795 0)
(0.0507839 0.0153062 0)
(0.0505602 0.0160298 0)
(0.0503261 0.0167502 0)
(0.0500818 0.0174671 0)
(0.0498273 0.0181804 0)
(0.0495626 0.0188901 0)
(0.0492878 0.0195959 0)
(0.049003 0.0202977 0)
(0.0487081 0.0209954 0)
(0.0484034 0.0216888 0)
(0.0480887 0.0223777 0)
(0.0477643 0.0230621 0)
(0.0474301 0.0237418 0)
(0.0470862 0.0244167 0)
(0.0467328 0.0250865 0)
(0.0463698 0.0257513 0)
(0.0459974 0.0264108 0)
(0.0456155 0.0270649 0)
(0.0452244 0.0277136 0)
(0.0448241 0.0283565 0)
(0.0444146 0.0289937 0)
(0.043996 0.0296249 0)
(0.0435685 0.0302502 0)
(0.0431321 0.0308692 0)
(0.0426869 0.031482 0)
(0.042233 0.0320883 0)
(0.0417705 0.0326881 0)
(0.0412995 0.0332812 0)
(0.04082 0.0338676 0)
(0.0403323 0.034447 0)
(0.0398363 0.0350194 0)
(0.0393322 0.0355847 0)
(0.03882 0.0361427 0)
(0.0383 0.0366934 0)
(0.0377721 0.0372365 0)
(0.0372365 0.0377721 0)
(0.0366934 0.0383 0)
(0.0361427 0.03882 0)
(0.0355847 0.0393322 0)
(0.0350194 0.0398363 0)
(0.034447 0.0403323 0)
(0.0338676 0.04082 0)
(0.0332812 0.0412995 0)
(0.0326881 0.0417705 0)
(0.0320883 0.042233 0)
(0.031482 0.0426869 0)
(0.0308692 0.0431321 0)
(0.0302502 0.0435685 0)
(0.0296249 0.043996 0)
(0.0289937 0.0444146 0)
(0.0283565 0.0448241 0)
(0.0277136 0.0452244 0)
(0.0270649 0.0456155 0)
(0.0264108 0.0459974 0)
(0.0257513 0.0463698 0)
(0.0250865 0.0467328 0)
(0.0244167 0.0470862 0)
(0.0237418 0.0474301 0)
(0.0230621 0.0477643 0)
(0.0223777 0.0480887 0)
(0.0216888 0.0484034 0)
(0.0209954 0.0487081 0)
(0.0202977 0.049003 0)
(0.0195959 0.0492878 0)
(0.0188901 0.0495626 0)
(0.0181804 0.0498273 0)
(0.0174671 0.0500818 0)
(0.0167502 0.0503261 0)
(0.0160298 0.0505602 0)
(0.0153062 0.0507839 0)
(0.0145795 0.0509973 0)
(0.0138498 0.0512003 0)
(0.0131172 0.0513929 0)
(0.012382 0.0515749 0)
(0.0116443 0.0517465 0)
(0.0109042 0.0519075 0)
(0.0101619 0.0520579 0)
(0.0094175 0.0521977 0)
(0.00867118 0.0523269 0)
(0.0079231 0.0524453 0)
(0.0071734 0.0525531 0)
(0.00642224 0.0526502 0)
(0.00566976 0.0527365 0)
(0.00491614 0.0528121 0)
(0.00416151 0.0528769 0)
(0.00340603 0.052931 0)
(0.00264985 0.0529742 0)
(0.00189314 0.0530066 0)
(0.00113604 0.0530283 0)
(0.000378705 0.0530391 0)
(0.0527967 0.000376974 0)
(0.0527859 0.00113084 0)
(0.0527644 0.00188448 0)
(0.0527321 0.00263774 0)
(0.0526891 0.00339046 0)
(0.0526353 0.00414249 0)
(0.0525707 0.00489367 0)
(0.0524955 0.00564385 0)
(0.0524096 0.00639288 0)
(0.0523129 0.00714061 0)
(0.0522056 0.00788689 0)
(0.0520877 0.00863155 0)
(0.0519591 0.00937446 0)
(0.05182 0.0101155 0)
(0.0516702 0.0108544 0)
(0.05151 0.0115911 0)
(0.0513392 0.0123255 0)
(0.051158 0.0130573 0)
(0.0509663 0.0137865 0)
(0.0507642 0.0145128 0)
(0.0505518 0.0152362 0)
(0.0503291 0.0159565 0)
(0.0500961 0.0166736 0)
(0.0498529 0.0173872 0)
(0.0495996 0.0180973 0)
(0.0493361 0.0188038 0)
(0.0490626 0.0195063 0)
(0.048779 0.0202049 0)
(0.0484855 0.0208994 0)
(0.0481821 0.0215896 0)
(0.0478689 0.0222754 0)
(0.047546 0.0229567 0)
(0.0472133 0.0236333 0)
(0.046871 0.0243051 0)
(0.0465192 0.0249719 0)
(0.0461579 0.0256336 0)
(0.0457871 0.0262901 0)
(0.0454071 0.0269413 0)
(0.0450177 0.0275869 0)
(0.0446192 0.0282269 0)
(0.0442116 0.0288612 0)
(0.043795 0.0294895 0)
(0.0433694 0.0301119 0)
(0.042935 0.0307281 0)
(0.0424918 0.0313381 0)
(0.04204 0.0319417 0)
(0.0415796 0.0325387 0)
(0.0411107 0.0331291 0)
(0.0406335 0.0337128 0)
(0.0401479 0.0342896 0)
(0.0396542 0.0348594 0)
(0.0391524 0.0354221 0)
(0.0386426 0.0359775 0)
(0.0381249 0.0365256 0)
(0.0375995 0.0370663 0)
(0.0370663 0.0375995 0)
(0.0365256 0.0381249 0)
(0.0359775 0.0386426 0)
(0.0354221 0.0391524 0)
(0.0348594 0.0396542 0)
(0.0342896 0.0401479 0)
(0.0337128 0.0406335 0)
(0.0331291 0.0411107 0)
(0.0325387 0.0415796 0)
(0.0319417 0.04204 0)
(0.0313381 0.0424918 0)
(0.0307281 0.042935 0)
(0.0301119 0.0433694 0)
(0.0294895 0.043795 0)
(0.0288612 0.0442116 0)
(0.0282269 0.0446192 0)
(0.0275869 0.0450177 0)
(0.0269413 0.0454071 0)
(0.0262901 0.0457871 0)
(0.0256336 0.0461579 0)
(0.0249719 0.0465192 0)
(0.0243051 0.046871 0)
(0.0236333 0.0472133 0)
(0.0229567 0.047546 0)
(0.0222754 0.0478689 0)
(0.0215896 0.0481821 0)
(0.0208994 0.0484855 0)
(0.0202049 0.048779 0)
(0.0195063 0.0490626 0)
(0.0188038 0.0493361 0)
(0.0180973 0.0495996 0)
(0.0173872 0.0498529 0)
(0.0166736 0.0500961 0)
(0.0159565 0.0503291 0)
(0.0152362 0.0505518 0)
(0.0145128 0.0507642 0)
(0.0137865 0.0509663 0)
(0.0130573 0.051158 0)
(0.0123255 0.0513392 0)
(0.0115911 0.05151 0)
(0.0108544 0.0516702 0)
(0.0101155 0.05182 0)
(0.00937446 0.0519591 0)
(0.00863155 0.0520877 0)
(0.00788689 0.0522056 0)
(0.00714061 0.0523129 0)
(0.00639288 0.0524096 0)
(0.00564385 0.0524955 0)
(0.00489367 0.0525707 0)
(0.00414249 0.0526353 0)
(0.00339046 0.0526891 0)
(0.00263774 0.0527321 0)
(0.00188448 0.0527644 0)
(0.00113084 0.0527859 0)
(0.000376974 0.0527967 0)
(0.0525563 0.000375258 0)
(0.0525456 0.0011257 0)
(0.0525242 0.00187591 0)
(0.052492 0.00262573 0)
(0.0524492 0.00337502 0)
(0.0523956 0.00412363 0)
(0.0523314 0.00487139 0)
(0.0522565 0.00561816 0)
(0.052171 0.00636378 0)
(0.0520748 0.00710811 0)
(0.051968 0.00785098 0)
(0.0518506 0.00859226 0)
(0.0517226 0.00933178 0)
(0.051584 0.0100694 0)
(0.051435 0.010805 0)
(0.0512755 0.0115383 0)
(0.0511055 0.0122693 0)
(0.0509251 0.0129978 0)
(0.0507343 0.0137237 0)
(0.0505331 0.0144468 0)
(0.0503217 0.0151669 0)
(0.0501 0.0158839 0)
(0.0498681 0.0165977 0)
(0.049626 0.0173081 0)
(0.0493738 0.018015 0)
(0.0491115 0.0187181 0)
(0.0488392 0.0194175 0)
(0.0485569 0.0201129 0)
(0.0482648 0.0208043 0)
(0.0479628 0.0214913 0)
(0.047651 0.022174 0)
(0.0473295 0.0228522 0)
(0.0469984 0.0235257 0)
(0.0466577 0.0241944 0)
(0.0463074 0.0248582 0)
(0.0459477 0.0255169 0)
(0.0455787 0.0261704 0)
(0.0452003 0.0268186 0)
(0.0448128 0.0274613 0)
(0.0444161 0.0280984 0)
(0.0440103 0.0287298 0)
(0.0435956 0.0293553 0)
(0.0431719 0.0299748 0)
(0.0427395 0.0305882 0)
(0.0422984 0.0311954 0)
(0.0418486 0.0317962 0)
(0.0413903 0.0323906 0)
(0.0409236 0.0329783 0)
(0.0404485 0.0335593 0)
(0.0399652 0.0341335 0)
(0.0394737 0.0347007 0)
(0.0389741 0.0352608 0)
(0.0384667 0.0358137 0)
(0.0379513 0.0363594 0)
(0.0374283 0.0368976 0)
(0.0368976 0.0374283 0)
(0.0363594 0.0379513 0)
(0.0358137 0.0384667 0)
(0.0352608 0.0389741 0)
(0.0347007 0.0394737 0)
(0.0341335 0.0399652 0)
(0.0335593 0.0404485 0)
(0.0329783 0.0409236 0)
(0.0323906 0.0413903 0)
(0.0317962 0.0418486 0)
(0.0311954 0.0422984 0)
(0.0305882 0.0427395 0)
(0.0299748 0.0431719 0)
(0.0293553 0.0435956 0)
(0.0287298 0.0440103 0)
(0.0280984 0.0444161 0)
(0.0274613 0.0448128 0)
(0.0268186 0.0452003 0)
(0.0261704 0.0455787 0)
(0.0255169 0.0459477 0)
(0.0248582 0.0463074 0)
(0.0241944 0.0466577 0)
(0.0235257 0.0469984 0)
(0.0228522 0.0473295 0)
(0.022174 0.047651 0)
(0.0214913 0.0479628 0)
(0.0208043 0.0482648 0)
(0.0201129 0.0485569 0)
(0.0194175 0.0488392 0)
(0.0187181 0.0491115 0)
(0.018015 0.0493738 0)
(0.0173081 0.049626 0)
(0.0165977 0.0498681 0)
(0.0158839 0.0501 0)
(0.0151669 0.0503217 0)
(0.0144468 0.0505331 0)
(0.0137237 0.0507343 0)
(0.0129978 0.0509251 0)
(0.0122693 0.0511055 0)
(0.0115383 0.0512755 0)
(0.010805 0.051435 0)
(0.0100694 0.051584 0)
(0.00933178 0.0517226 0)
(0.00859226 0.0518506 0)
(0.00785098 0.051968 0)
(0.00710811 0.0520748 0)
(0.00636378 0.052171 0)
(0.00561816 0.0522565 0)
(0.00487139 0.0523314 0)
(0.00412363 0.0523956 0)
(0.00337502 0.0524492 0)
(0.00262573 0.052492 0)
(0.00187591 0.0525242 0)
(0.0011257 0.0525456 0)
(0.000375258 0.0525563 0)
(0.0523203 0.000373573 0)
(0.0523096 0.00112064 0)
(0.0522883 0.00186748 0)
(0.0522563 0.00261394 0)
(0.0522137 0.00335987 0)
(0.0521604 0.00410511 0)
(0.0520964 0.00484951 0)
(0.0520219 0.00559293 0)
(0.0519367 0.0063352 0)
(0.0518409 0.00707619 0)
(0.0517346 0.00781573 0)
(0.0516177 0.00855367 0)
(0.0514903 0.00928988 0)
(0.0513524 0.0100242 0)
(0.051204 0.0107564 0)
(0.0510452 0.0114865 0)
(0.050876 0.0122142 0)
(0.0506964 0.0129395 0)
(0.0505065 0.0136621 0)
(0.0503062 0.0143819 0)
(0.0500957 0.0150988 0)
(0.049875 0.0158126 0)
(0.0496441 0.0165232 0)
(0.0494031 0.0172304 0)
(0.0491521 0.0179341 0)
(0.048891 0.0186341 0)
(0.0486199 0.0193303 0)
(0.0483389 0.0200226 0)
(0.0480481 0.0207108 0)
(0.0477474 0.0213948 0)
(0.047437 0.0220745 0)
(0.047117 0.0227496 0)
(0.0467873 0.0234201 0)
(0.0464481 0.0240858 0)
(0.0460995 0.0247466 0)
(0.0457414 0.0254023 0)
(0.045374 0.0260529 0)
(0.0449974 0.0266982 0)
(0.0446115 0.027338 0)
(0.0442166 0.0279722 0)
(0.0438127 0.0286008 0)
(0.0433998 0.0292235 0)
(0.0429781 0.0298402 0)
(0.0425476 0.0304509 0)
(0.0421084 0.0310553 0)
(0.0416607 0.0316535 0)
(0.0412045 0.0322451 0)
(0.0407398 0.0328302 0)
(0.0402669 0.0334086 0)
(0.0397857 0.0339802 0)
(0.0392964 0.0345448 0)
(0.0387991 0.0351025 0)
(0.0382939 0.0356529 0)
(0.0377809 0.0361961 0)
(0.0372602 0.0367319 0)
(0.0367319 0.0372602 0)
(0.0361961 0.0377809 0)
(0.0356529 0.0382939 0)
(0.0351025 0.0387991 0)
(0.0345448 0.0392964 0)
(0.0339802 0.0397857 0)
(0.0334086 0.0402669 0)
(0.0328302 0.0407398 0)
(0.0322451 0.0412045 0)
(0.0316535 0.0416607 0)
(0.0310553 0.0421084 0)
(0.0304509 0.0425476 0)
(0.0298402 0.0429781 0)
(0.0292235 0.0433998 0)
(0.0286008 0.0438127 0)
(0.0279722 0.0442166 0)
(0.027338 0.0446115 0)
(0.0266982 0.0449974 0)
(0.0260529 0.045374 0)
(0.0254023 0.0457414 0)
(0.0247466 0.0460995 0)
(0.0240858 0.0464481 0)
(0.0234201 0.0467873 0)
(0.0227496 0.047117 0)
(0.0220745 0.047437 0)
(0.0213948 0.0477474 0)
(0.0207108 0.0480481 0)
(0.0200226 0.0483389 0)
(0.0193303 0.0486199 0)
(0.0186341 0.048891 0)
(0.0179341 0.0491521 0)
(0.0172304 0.0494031 0)
(0.0165232 0.0496441 0)
(0.0158126 0.049875 0)
(0.0150988 0.0500957 0)
(0.0143819 0.0503062 0)
(0.0136621 0.0505065 0)
(0.0129395 0.0506964 0)
(0.0122142 0.050876 0)
(0.0114865 0.0510452 0)
(0.0107564 0.051204 0)
(0.0100242 0.0513524 0)
(0.00928988 0.0514903 0)
(0.00855367 0.0516177 0)
(0.00781573 0.0517346 0)
(0.00707619 0.0518409 0)
(0.0063352 0.0519367 0)
(0.00559293 0.0520219 0)
(0.00484951 0.0520964 0)
(0.00410511 0.0521604 0)
(0.00335987 0.0522137 0)
(0.00261394 0.0522563 0)
(0.00186748 0.0522883 0)
(0.00112064 0.0523096 0)
(0.000373573 0.0523203 0)
(0.0520873 0.000371909 0)
(0.0520767 0.00111565 0)
(0.0520554 0.00185916 0)
(0.0520236 0.0026023 0)
(0.0519811 0.0033449 0)
(0.051928 0.00408683 0)
(0.0518644 0.00482791 0)
(0.0517902 0.00556802 0)
(0.0517054 0.00630699 0)
(0.05161 0.00704467 0)
(0.0515042 0.00778092 0)
(0.0513878 0.00851558 0)
(0.051261 0.0092485 0)
(0.0511237 0.00997954 0)
(0.050976 0.0107085 0)
(0.0508179 0.0114354 0)
(0.0506494 0.0121598 0)
(0.0504706 0.0128819 0)
(0.0502815 0.0136012 0)
(0.0500822 0.0143178 0)
(0.0498726 0.0150315 0)
(0.0496529 0.0157422 0)
(0.049423 0.0164496 0)
(0.0491831 0.0171536 0)
(0.0489331 0.0178542 0)
(0.0486732 0.0185511 0)
(0.0484033 0.0192442 0)
(0.0481236 0.0199335 0)
(0.0478341 0.0206186 0)
(0.0475348 0.0212995 0)
(0.0472258 0.0219761 0)
(0.0469071 0.0226483 0)
(0.046579 0.0233158 0)
(0.0462413 0.0239785 0)
(0.0458942 0.0246364 0)
(0.0455377 0.0252892 0)
(0.0451719 0.0259369 0)
(0.044797 0.0265793 0)
(0.0444128 0.0272162 0)
(0.0440197 0.0278476 0)
(0.0436175 0.0284734 0)
(0.0432065 0.0290933 0)
(0.0427867 0.0297073 0)
(0.0423581 0.0303153 0)
(0.0419209 0.030917 0)
(0.0414751 0.0315125 0)
(0.0410209 0.0321015 0)
(0.0405584 0.032684 0)
(0.0400875 0.0332598 0)
(0.0396085 0.0338288 0)
(0.0391214 0.034391 0)
(0.0386263 0.0349461 0)
(0.0381234 0.0354941 0)
(0.0376126 0.0360349 0)
(0.0370943 0.0365683 0)
(0.0365683 0.0370943 0)
(0.0360349 0.0376126 0)
(0.0354941 0.0381234 0)
(0.0349461 0.0386263 0)
(0.034391 0.0391214 0)
(0.0338288 0.0396085 0)
(0.0332598 0.0400875 0)
(0.032684 0.0405584 0)
(0.0321015 0.0410209 0)
(0.0315125 0.0414751 0)
(0.030917 0.0419209 0)
(0.0303153 0.0423581 0)
(0.0297073 0.0427867 0)
(0.0290933 0.0432065 0)
(0.0284734 0.0436175 0)
(0.0278476 0.0440197 0)
(0.0272162 0.0444128 0)
(0.0265793 0.044797 0)
(0.0259369 0.0451719 0)
(0.0252892 0.0455377 0)
(0.0246364 0.0458942 0)
(0.0239785 0.0462413 0)
(0.0233158 0.046579 0)
(0.0226483 0.0469071 0)
(0.0219761 0.0472258 0)
(0.0212995 0.0475348 0)
(0.0206186 0.0478341 0)
(0.0199335 0.0481236 0)
(0.0192442 0.0484033 0)
(0.0185511 0.0486732 0)
(0.0178542 0.0489331 0)
(0.0171536 0.0491831 0)
(0.0164496 0.049423 0)
(0.0157422 0.0496529 0)
(0.0150315 0.0498726 0)
(0.0143178 0.0500822 0)
(0.0136012 0.0502815 0)
(0.0128819 0.0504706 0)
(0.0121598 0.0506494 0)
(0.0114354 0.0508179 0)
(0.0107085 0.050976 0)
(0.00997954 0.0511237 0)
(0.0092485 0.051261 0)
(0.00851558 0.0513878 0)
(0.00778092 0.0515042 0)
(0.00704467 0.05161 0)
(0.00630699 0.0517054 0)
(0.00556802 0.0517902 0)
(0.00482791 0.0518644 0)
(0.00408683 0.051928 0)
(0.0033449 0.0519811 0)
(0.0026023 0.0520236 0)
(0.00185916 0.0520554 0)
(0.00111565 0.0520767 0)
(0.000371909 0.0520873 0)
(0.0518581 0.000370272 0)
(0.0518475 0.00111074 0)
(0.0518264 0.00185098 0)
(0.0517947 0.00259085 0)
(0.0517524 0.00333019 0)
(0.0516996 0.00406884 0)
(0.0516362 0.00480667 0)
(0.0515623 0.00554352 0)
(0.0514779 0.00627924 0)
(0.051383 0.00701368 0)
(0.0512776 0.00774668 0)
(0.0511617 0.00847811 0)
(0.0510354 0.00920781 0)
(0.0508988 0.00993563 0)
(0.0507517 0.0106614 0)
(0.0505943 0.011385 0)
(0.0504266 0.0121063 0)
(0.0502485 0.0128252 0)
(0.0500603 0.0135414 0)
(0.0498618 0.0142548 0)
(0.0496532 0.0149654 0)
(0.0494344 0.0156729 0)
(0.0492056 0.0163772 0)
(0.0489667 0.0170781 0)
(0.0487178 0.0177756 0)
(0.048459 0.0184695 0)
(0.0481904 0.0191596 0)
(0.0479119 0.0198457 0)
(0.0476236 0.0205279 0)
(0.0473256 0.0212058 0)
(0.047018 0.0218794 0)
(0.0467008 0.0225486 0)
(0.046374 0.0232132 0)
(0.0460378 0.023873 0)
(0.0456922 0.024528 0)
(0.0453373 0.0251779 0)
(0.0449732 0.0258228 0)
(0.0445999 0.0264623 0)
(0.0442174 0.0270965 0)
(0.043826 0.0277251 0)
(0.0434256 0.0283481 0)
(0.0430164 0.0289653 0)
(0.0425984 0.0295766 0)
(0.0421717 0.0301819 0)
(0.0417365 0.030781 0)
(0.0412927 0.0313738 0)
(0.0408404 0.0319603 0)
(0.0403799 0.0325402 0)
(0.0399111 0.0331135 0)
(0.0394342 0.03368 0)
(0.0389493 0.0342397 0)
(0.0384564 0.0347924 0)
(0.0379556 0.0353379 0)
(0.0374472 0.0358763 0)
(0.036931 0.0364074 0)
(0.0364074 0.036931 0)
(0.0358763 0.0374472 0)
(0.0353379 0.0379556 0)
(0.0347924 0.0384564 0)
(0.0342397 0.0389493 0)
(0.03368 0.0394342 0)
(0.0331135 0.0399111 0)
(0.0325402 0.0403799 0)
(0.0319603 0.0408404 0)
(0.0313738 0.0412927 0)
(0.030781 0.0417365 0)
(0.0301819 0.0421717 0)
(0.0295766 0.0425984 0)
(0.0289653 0.0430164 0)
(0.0283481 0.0434256 0)
(0.0277251 0.043826 0)
(0.0270965 0.0442174 0)
(0.0264623 0.0445999 0)
(0.0258228 0.0449732 0)
(0.0251779 0.0453373 0)
(0.024528 0.0456922 0)
(0.023873 0.0460378 0)
(0.0232132 0.046374 0)
(0.0225486 0.0467008 0)
(0.0218794 0.047018 0)
(0.0212058 0.0473256 0)
(0.0205279 0.0476236 0)
(0.0198457 0.0479119 0)
(0.0191596 0.0481904 0)
(0.0184695 0.048459 0)
(0.0177756 0.0487178 0)
(0.0170781 0.0489667 0)
(0.0163772 0.0492056 0)
(0.0156729 0.0494344 0)
(0.0149654 0.0496532 0)
(0.0142548 0.0498618 0)
(0.0135414 0.0500603 0)
(0.0128252 0.0502485 0)
(0.0121063 0.0504266 0)
(0.011385 0.0505943 0)
(0.0106614 0.0507517 0)
(0.00993563 0.0508988 0)
(0.00920781 0.0510354 0)
(0.00847811 0.0511617 0)
(0.00774668 0.0512776 0)
(0.00701368 0.051383 0)
(0.00627924 0.0514779 0)
(0.00554352 0.0515623 0)
(0.00480667 0.0516362 0)
(0.00406884 0.0516996 0)
(0.00333019 0.0517524 0)
(0.00259085 0.0517947 0)
(0.00185098 0.0518264 0)
(0.00111074 0.0518475 0)
(0.000370272 0.0518581 0)
(0.0516323 0.00036866 0)
(0.0516217 0.0011059 0)
(0.0516007 0.00184292 0)
(0.0515691 0.00257957 0)
(0.051527 0.00331568 0)
(0.0514744 0.00405112 0)
(0.0514113 0.00478574 0)
(0.0513377 0.00551938 0)
(0.0512537 0.00625189 0)
(0.0511592 0.00698313 0)
(0.0510543 0.00771295 0)
(0.0509389 0.00844119 0)
(0.0508132 0.00916771 0)
(0.0506771 0.00989236 0)
(0.0505307 0.010615 0)
(0.050374 0.0113355 0)
(0.050207 0.0120536 0)
(0.0500297 0.0127693 0)
(0.0498423 0.0134824 0)
(0.0496447 0.0141928 0)
(0.0494369 0.0149002 0)
(0.0492191 0.0156046 0)
(0.0489913 0.0163059 0)
(0.0487535 0.0170038 0)
(0.0485057 0.0176982 0)
(0.048248 0.018389 0)
(0.0479805 0.0190761 0)
(0.0477032 0.0197593 0)
(0.0474162 0.0204385 0)
(0.0471195 0.0211135 0)
(0.0468132 0.0217842 0)
(0.0464974 0.0224504 0)
(0.0461721 0.0231121 0)
(0.0458373 0.023769 0)
(0.0454932 0.0244212 0)
(0.0451399 0.0250683 0)
(0.0447773 0.0257103 0)
(0.0444056 0.0263471 0)
(0.0440249 0.0269785 0)
(0.0436351 0.0276044 0)
(0.0432365 0.0282247 0)
(0.0428291 0.0288392 0)
(0.0424129 0.0294478 0)
(0.0419881 0.0300504 0)
(0.0415547 0.0306469 0)
(0.0411128 0.0312372 0)
(0.0406626 0.0318211 0)
(0.0402041 0.0323985 0)
(0.0397373 0.0329693 0)
(0.0392625 0.0335333 0)
(0.0387797 0.0340906 0)
(0.0382889 0.0346408 0)
(0.0377903 0.0351841 0)
(0.0372841 0.0357201 0)
(0.0367702 0.0362489 0)
(0.0362489 0.0367702 0)
(0.0357201 0.0372841 0)
(0.0351841 0.0377903 0)
(0.0346408 0.0382889 0)
(0.0340906 0.0387796 0)
(0.0335333 0.0392625 0)
(0.0329693 0.0397373 0)
(0.0323985 0.0402041 0)
(0.0318211 0.0406626 0)
(0.0312372 0.0411128 0)
(0.0306469 0.0415547 0)
(0.0300504 0.0419881 0)
(0.0294478 0.0424129 0)
(0.0288392 0.0428291 0)
(0.0282247 0.0432365 0)
(0.0276044 0.0436351 0)
(0.0269785 0.0440249 0)
(0.0263471 0.0444056 0)
(0.0257103 0.0447773 0)
(0.0250683 0.0451399 0)
(0.0244212 0.0454932 0)
(0.023769 0.0458373 0)
(0.0231121 0.0461721 0)
(0.0224504 0.0464974 0)
(0.0217842 0.0468132 0)
(0.0211135 0.0471195 0)
(0.0204385 0.0474162 0)
(0.0197593 0.0477032 0)
(0.0190761 0.0479805 0)
(0.018389 0.048248 0)
(0.0176982 0.0485057 0)
(0.0170038 0.0487535 0)
(0.0163059 0.0489913 0)
(0.0156046 0.0492191 0)
(0.0149002 0.0494369 0)
(0.0141928 0.0496447 0)
(0.0134824 0.0498423 0)
(0.0127693 0.0500297 0)
(0.0120536 0.050207 0)
(0.0113355 0.050374 0)
(0.010615 0.0505307 0)
(0.00989236 0.0506771 0)
(0.00916771 0.0508132 0)
(0.00844119 0.0509389 0)
(0.00771295 0.0510543 0)
(0.00698313 0.0511592 0)
(0.00625189 0.0512537 0)
(0.00551938 0.0513377 0)
(0.00478574 0.0514113 0)
(0.00405112 0.0514744 0)
(0.00331568 0.051527 0)
(0.00257957 0.0515691 0)
(0.00184292 0.0516007 0)
(0.0011059 0.0516217 0)
(0.00036866 0.0516323 0)
(0.0514101 0.000367073 0)
(0.0513996 0.00110115 0)
(0.0513787 0.00183499 0)
(0.0513472 0.00256847 0)
(0.0513053 0.00330142 0)
(0.0512529 0.00403369 0)
(0.0511901 0.00476515 0)
(0.0511168 0.00549563 0)
(0.0510332 0.00622499 0)
(0.0509391 0.00695308 0)
(0.0508346 0.00767976 0)
(0.0507197 0.00840487 0)
(0.0505945 0.00912826 0)
(0.050459 0.00984979 0)
(0.0503132 0.0105693 0)
(0.0501572 0.0112867 0)
(0.0499909 0.0120018 0)
(0.0498144 0.0127144 0)
(0.0496278 0.0134244 0)
(0.049431 0.0141317 0)
(0.0492242 0.0148361 0)
(0.0490073 0.0155375 0)
(0.0487805 0.0162357 0)
(0.0485437 0.0169306 0)
(0.048297 0.0176221 0)
(0.0480404 0.0183099 0)
(0.047774 0.018994 0)
(0.047498 0.0196743 0)
(0.0472122 0.0203505 0)
(0.0469168 0.0210226 0)
(0.0466118 0.0216904 0)
(0.0462973 0.0223538 0)
(0.0459734 0.0230126 0)
(0.0456401 0.0236668 0)
(0.0452975 0.0243161 0)
(0.0449456 0.0249604 0)
(0.0445846 0.0255997 0)
(0.0442145 0.0262337 0)
(0.0438354 0.0268624 0)
(0.0434474 0.0274856 0)
(0.0430505 0.0281032 0)
(0.0426448 0.0287151 0)
(0.0422304 0.0293211 0)
(0.0418074 0.0299211 0)
(0.0413759 0.0305151 0)
(0.0409359 0.0311028 0)
(0.0404876 0.0316842 0)
(0.0400311 0.0322591 0)
(0.0395663 0.0328274 0)
(0.0390935 0.033389 0)
(0.0386128 0.0339439 0)
(0.0381241 0.0344918 0)
(0.0376277 0.0350327 0)
(0.0371236 0.0355664 0)
(0.036612 0.0360929 0)
(0.0360929 0.036612 0)
(0.0355664 0.0371236 0)
(0.0350327 0.0376277 0)
(0.0344918 0.0381241 0)
(0.0339439 0.0386128 0)
(0.033389 0.0390935 0)
(0.0328274 0.0395663 0)
(0.0322591 0.0400311 0)
(0.0316842 0.0404876 0)
(0.0311028 0.0409359 0)
(0.0305151 0.0413759 0)
(0.0299211 0.0418074 0)
(0.0293211 0.0422304 0)
(0.0287151 0.0426448 0)
(0.0281032 0.0430505 0)
(0.0274856 0.0434474 0)
(0.0268624 0.0438354 0)
(0.0262337 0.0442145 0)
(0.0255997 0.0445846 0)
(0.0249604 0.0449456 0)
(0.0243161 0.0452975 0)
(0.0236668 0.0456401 0)
(0.0230126 0.0459734 0)
(0.0223538 0.0462973 0)
(0.0216904 0.0466118 0)
(0.0210226 0.0469168 0)
(0.0203505 0.0472122 0)
(0.0196743 0.047498 0)
(0.018994 0.047774 0)
(0.0183099 0.0480404 0)
(0.0176221 0.048297 0)
(0.0169306 0.0485437 0)
(0.0162357 0.0487805 0)
(0.0155375 0.0490073 0)
(0.0148361 0.0492242 0)
(0.0141317 0.049431 0)
(0.0134244 0.0496278 0)
(0.0127144 0.0498144 0)
(0.0120018 0.0499909 0)
(0.0112867 0.0501572 0)
(0.0105693 0.0503132 0)
(0.00984979 0.050459 0)
(0.00912826 0.0505945 0)
(0.00840487 0.0507197 0)
(0.00767976 0.0508346 0)
(0.00695308 0.0509391 0)
(0.00622499 0.0510332 0)
(0.00549563 0.0511168 0)
(0.00476515 0.0511901 0)
(0.00403369 0.0512529 0)
(0.00330142 0.0513053 0)
(0.00256847 0.0513472 0)
(0.00183499 0.0513787 0)
(0.00110115 0.0513996 0)
(0.000367073 0.0514101 0)
(0.0511914 0.000365512 0)
(0.051181 0.00109646 0)
(0.0511601 0.00182719 0)
(0.0511288 0.00255754 0)
(0.0510871 0.00328737 0)
(0.0510349 0.00401653 0)
(0.0509723 0.00474488 0)
(0.0508994 0.00547225 0)
(0.0508161 0.00619851 0)
(0.0507224 0.0069235 0)
(0.0506183 0.00764709 0)
(0.050504 0.00836911 0)
(0.0503793 0.00908943 0)
(0.0502444 0.00980789 0)
(0.0500992 0.0105244 0)
(0.0499438 0.0112387 0)
(0.0497783 0.0119507 0)
(0.0496025 0.0126603 0)
(0.0494167 0.0133673 0)
(0.0492208 0.0140716 0)
(0.0490148 0.014773 0)
(0.0487989 0.0154714 0)
(0.048573 0.0161666 0)
(0.0483372 0.0168586 0)
(0.0480915 0.0175471 0)
(0.047836 0.018232 0)
(0.0475708 0.0189132 0)
(0.0472959 0.0195906 0)
(0.0470113 0.020264 0)
(0.0467172 0.0209332 0)
(0.0464135 0.0215982 0)
(0.0461004 0.0222587 0)
(0.0457778 0.0229147 0)
(0.0454459 0.0235661 0)
(0.0451048 0.0242126 0)
(0.0447544 0.0248542 0)
(0.044395 0.0254908 0)
(0.0440265 0.0261221 0)
(0.043649 0.0267481 0)
(0.0432626 0.0273687 0)
(0.0428673 0.0279837 0)
(0.0424634 0.0285929 0)
(0.0420508 0.0291964 0)
(0.0416296 0.0297938 0)
(0.0411999 0.0303853 0)
(0.0407618 0.0309705 0)
(0.0403154 0.0315494 0)
(0.0398608 0.0321218 0)
(0.039398 0.0326878 0)
(0.0389272 0.033247 0)
(0.0384485 0.0337995 0)
(0.037962 0.0343451 0)
(0.0374677 0.0348836 0)
(0.0369657 0.0354151 0)
(0.0364562 0.0359393 0)
(0.0359393 0.0364562 0)
(0.0354151 0.0369657 0)
(0.0348836 0.0374677 0)
(0.0343451 0.037962 0)
(0.0337995 0.0384485 0)
(0.033247 0.0389272 0)
(0.0326878 0.039398 0)
(0.0321218 0.0398608 0)
(0.0315494 0.0403154 0)
(0.0309705 0.0407618 0)
(0.0303853 0.0411999 0)
(0.0297938 0.0416296 0)
(0.0291964 0.0420508 0)
(0.0285929 0.0424634 0)
(0.0279837 0.0428673 0)
(0.0273687 0.0432626 0)
(0.0267481 0.043649 0)
(0.0261221 0.0440265 0)
(0.0254908 0.044395 0)
(0.0248542 0.0447544 0)
(0.0242126 0.0451048 0)
(0.0235661 0.0454459 0)
(0.0229147 0.0457778 0)
(0.0222587 0.0461004 0)
(0.0215982 0.0464135 0)
(0.0209332 0.0467172 0)
(0.020264 0.0470113 0)
(0.0195906 0.0472959 0)
(0.0189132 0.0475708 0)
(0.018232 0.047836 0)
(0.0175471 0.0480915 0)
(0.0168586 0.0483372 0)
(0.0161666 0.048573 0)
(0.0154714 0.0487989 0)
(0.014773 0.0490148 0)
(0.0140716 0.0492208 0)
(0.0133673 0.0494167 0)
(0.0126603 0.0496025 0)
(0.0119507 0.0497783 0)
(0.0112387 0.0499438 0)
(0.0105244 0.0500992 0)
(0.00980789 0.0502444 0)
(0.00908943 0.0503793 0)
(0.00836911 0.050504 0)
(0.00764709 0.0506183 0)
(0.0069235 0.0507224 0)
(0.00619851 0.0508161 0)
(0.00547225 0.0508994 0)
(0.00474488 0.0509723 0)
(0.00401653 0.0510349 0)
(0.00328737 0.0510871 0)
(0.00255754 0.0511288 0)
(0.00182719 0.0511601 0)
(0.00109646 0.051181 0)
(0.000365512 0.0511914 0)
(0.0509763 0.000363976 0)
(0.0509659 0.00109185 0)
(0.0509451 0.00181951 0)
(0.0509139 0.00254679 0)
(0.0508724 0.00327356 0)
(0.0508204 0.00399966 0)
(0.0507582 0.00472494 0)
(0.0506855 0.00544926 0)
(0.0506025 0.00617246 0)
(0.0505092 0.00689441 0)
(0.0504056 0.00761495 0)
(0.0502918 0.00833394 0)
(0.0501676 0.00905123 0)
(0.0500333 0.00976668 0)
(0.0498887 0.0104801 0)
(0.049734 0.0111914 0)
(0.0495691 0.0119005 0)
(0.0493941 0.0126071 0)
(0.049209 0.0133111 0)
(0.0490139 0.0140124 0)
(0.0488089 0.0147109 0)
(0.0485938 0.0154064 0)
(0.0483689 0.0160987 0)
(0.0481341 0.0167877 0)
(0.0478894 0.0174734 0)
(0.047635 0.0181554 0)
(0.0473709 0.0188338 0)
(0.0470972 0.0195083 0)
(0.0468138 0.0201788 0)
(0.0465209 0.0208452 0)
(0.0462185 0.0215074 0)
(0.0459066 0.0221652 0)
(0.0455855 0.0228184 0)
(0.045255 0.0234671 0)
(0.0449153 0.0241109 0)
(0.0445664 0.0247498 0)
(0.0442084 0.0253837 0)
(0.0438415 0.0260123 0)
(0.0434655 0.0266357 0)
(0.0430808 0.0272537 0)
(0.0426872 0.0278661 0)
(0.0422849 0.0284728 0)
(0.0418741 0.0290737 0)
(0.0414546 0.0296687 0)
(0.0410267 0.0302576 0)
(0.0405905 0.0308403 0)
(0.040146 0.0314168 0)
(0.0396933 0.0319869 0)
(0.0392325 0.0325504 0)
(0.0387637 0.0331073 0)
(0.038287 0.0336574 0)
(0.0378024 0.0342007 0)
(0.0373102 0.034737 0)
(0.0368104 0.0352663 0)
(0.0363031 0.0357883 0)
(0.0357883 0.0363031 0)
(0.0352663 0.0368104 0)
(0.034737 0.0373102 0)
(0.0342007 0.0378024 0)
(0.0336574 0.038287 0)
(0.0331073 0.0387637 0)
(0.0325504 0.0392325 0)
(0.0319869 0.0396933 0)
(0.0314168 0.040146 0)
(0.0308403 0.0405905 0)
(0.0302576 0.0410267 0)
(0.0296687 0.0414546 0)
(0.0290737 0.0418741 0)
(0.0284728 0.0422849 0)
(0.0278661 0.0426872 0)
(0.0272537 0.0430808 0)
(0.0266357 0.0434655 0)
(0.0260123 0.0438415 0)
(0.0253837 0.0442084 0)
(0.0247498 0.0445664 0)
(0.0241109 0.0449153 0)
(0.0234671 0.045255 0)
(0.0228184 0.0455855 0)
(0.0221652 0.0459066 0)
(0.0215074 0.0462185 0)
(0.0208452 0.0465209 0)
(0.0201788 0.0468138 0)
(0.0195083 0.0470972 0)
(0.0188338 0.0473709 0)
(0.0181554 0.047635 0)
(0.0174734 0.0478894 0)
(0.0167877 0.0481341 0)
(0.0160987 0.0483689 0)
(0.0154064 0.0485938 0)
(0.0147109 0.0488089 0)
(0.0140124 0.0490139 0)
(0.0133111 0.049209 0)
(0.0126071 0.0493941 0)
(0.0119005 0.0495691 0)
(0.0111914 0.049734 0)
(0.0104801 0.0498887 0)
(0.00976668 0.0500333 0)
(0.00905123 0.0501676 0)
(0.00833394 0.0502918 0)
(0.00761495 0.0504056 0)
(0.00689441 0.0505092 0)
(0.00617246 0.0506025 0)
(0.00544926 0.0506855 0)
(0.00472494 0.0507582 0)
(0.00399966 0.0508204 0)
(0.00327356 0.0508724 0)
(0.00254679 0.0509139 0)
(0.00181951 0.0509451 0)
(0.00109185 0.0509659 0)