/*--------------------------------*- C++ -*----------------------------------*\
| =========                 |                                                 |
| \\      /  F ield         | OpenFOAM: The Open Source CFD Toolbox           |
|  \\    /   O peration     | Version:  2312                                  |
|   \\  /    A nd           | Website:  www.openfoam.com                      |
|    \\/     M anipulation  |                                                 |
\*---------------------------------------------------------------------------*/
FoamFile
{
    version     2.0;
    format      ascii;
    arch        "LSB;label=32;scalar=64";
    class       volTensorField;
    location    "30";
    object      F;
}
// * * * * * * * * * * * * * * * * * * * * * * * * * * * * * * * * * * * * * //

dimensions      [0 0 0 0 0 0 0];

internalField   nonuniform List<tensor> 
12870
(
(0.928638 -0.00136144 1.87536e-20 -0.00136144 1.1193 -6.53696e-18 0 0 1)
(0.928716 -0.0040832 -4.03247e-18 -0.0040832 1.11923 3.18282e-18 0 0 1)
(0.928871 -0.00680164 5.75679e-18 -0.00680164 1.11907 6.7467e-18 0 0 1)
(0.929104 -0.00951453 1.77232e-19 -0.00951453 1.11884 -3.26368e-18 0 0 1)
(0.929414 -0.0122197 -2.20838e-18 -0.0122197 1.11853 3.13312e-18 0 0 1)
(0.929802 -0.0149148 6.00328e-18 -0.0149148 1.11814 4.72468e-19 0 0 1)
(0.930266 -0.0175978 -1.69106e-18 -0.0175978 1.11767 -3.44001e-18 0 0 1)
(0.930807 -0.0202665 3.67457e-18 -0.0202665 1.11713 3.68235e-18 0 0 1)
(0.931424 -0.0229186 -7.91503e-19 -0.0229186 1.11652 6.48883e-18 0 0 1)
(0.932116 -0.025552 3.54025e-18 -0.025552 1.11582 3.78201e-18 0 0 1)
(0.932883 -0.0281646 4.46236e-18 -0.0281646 1.11506 -2.63141e-18 0 0 1)
(0.933724 -0.0307542 4.09926e-18 -0.0307542 1.11422 -1.25728e-17 0 0 1)
(0.934639 -0.0333187 -7.85576e-18 -0.0333187 1.1133 -1.41733e-18 0 0 1)
(0.935627 -0.0358561 -2.06144e-18 -0.0358561 1.11231 -4.02401e-19 0 0 1)
(0.936687 -0.0383642 -3.20678e-18 -0.0383642 1.11125 -4.01345e-18 0 0 1)
(0.937818 -0.040841 -6.10105e-18 -0.040841 1.11012 8.67768e-18 0 0 1)
(0.93902 -0.0432845 -7.76582e-19 -0.0432845 1.10892 3.1749e-18 0 0 1)
(0.94029 -0.0456927 1.95395e-18 -0.0456927 1.10765 4.98715e-19 0 0 1)
(0.941629 -0.0480636 2.7866e-18 -0.0480636 1.10631 -2.63215e-18 0 0 1)
(0.943035 -0.0503954 9.1184e-19 -0.0503954 1.10491 -3.13872e-18 0 0 1)
(0.944508 -0.052686 0 -0.052686 1.10343 0 0 0 1)
(0.946044 -0.0549336 -2.89677e-18 -0.0549336 1.1019 2.51039e-18 0 0 1)
(0.947645 -0.0571365 -2.06436e-18 -0.0571365 1.1003 6.2024e-18 0 0 1)
(0.949308 -0.0592927 2.94092e-18 -0.0592927 1.09863 -2.43584e-18 0 0 1)
(0.951031 -0.0614006 3.72436e-19 -0.0614006 1.09691 -6.82257e-18 0 0 1)
(0.952814 -0.0634585 1.46672e-18 -0.0634585 1.09513 7.55464e-18 0 0 1)
(0.954655 -0.0654645 6.08507e-18 -0.0654645 1.09329 -4.61532e-18 0 0 1)
(0.956553 -0.0674172 -1.14721e-18 -0.0674172 1.09139 -7.55071e-18 0 0 1)
(0.958506 -0.0693148 -1.90315e-18 -0.0693148 1.08943 -8.20344e-19 0 0 1)
(0.960512 -0.071156 -8.11744e-18 -0.071156 1.08743 3.52588e-18 0 0 1)
(0.96257 -0.0729391 -1.90982e-18 -0.0729391 1.08537 1.35313e-17 0 0 1)
(0.964678 -0.0746627 2.81713e-18 -0.0746627 1.08326 -5.89881e-18 0 0 1)
(0.966834 -0.0763254 -3.02813e-19 -0.0763254 1.08111 -3.80666e-18 0 0 1)
(0.969037 -0.0779259 -3.30721e-18 -0.0779259 1.0789 1.96681e-18 0 0 1)
(0.971284 -0.0794628 3.31036e-18 -0.0794628 1.07666 -1.93259e-18 0 0 1)
(0.973575 -0.0809349 -1.63918e-19 -0.0809349 1.07437 -3.82969e-18 0 0 1)
(0.975907 -0.082341 3.23077e-18 -0.082341 1.07203 -5.68281e-18 0 0 1)
(0.978278 -0.0836799 -1.0898e-19 -0.0836799 1.06966 -7.66561e-18 0 0 1)
(0.980686 -0.0849506 -1.02694e-17 -0.0849506 1.06725 1.37358e-18 0 0 1)
(0.983129 -0.086152 -1.0398e-17 -0.086152 1.06481 8.89239e-18 0 0 1)
(0.985606 -0.0872831 3.33051e-18 -0.0872831 1.06233 2.17415e-18 0 0 1)
(0.988114 -0.088343 4.63186e-20 -0.088343 1.05983 3.11889e-20 0 0 1)
(0.990652 -0.0893309 -4.38156e-19 -0.0893309 1.05729 7.65385e-18 0 0 1)
(0.993216 -0.0902459 3.78175e-18 -0.0902459 1.05472 -5.33203e-18 0 0 1)
(0.995806 -0.0910874 -1.57801e-18 -0.0910874 1.05213 -1.1638e-18 0 0 1)
(0.998418 -0.0918545 -7.65544e-19 -0.0918545 1.04952 7.62807e-18 0 0 1)
(1.00105 -0.0925467 0 -0.0925467 1.04689 0 0 0 1)
(1.0037 -0.0931634 5.65018e-18 -0.0931634 1.04424 -3.84209e-18 0 0 1)
(1.00637 -0.0937041 8.34796e-18 -0.0937041 1.04157 -1.00617e-17 0 0 1)
(1.00906 -0.0941685 -3.33653e-19 -0.0941685 1.03889 -8.88159e-18 0 0 1)
(1.01175 -0.094556 -4.5437e-18 -0.094556 1.03619 -3.9943e-18 0 0 1)
(1.01446 -0.0948663 -1.10336e-17 -0.0948663 1.03348 3.24051e-18 0 0 1)
(1.01717 -0.0950994 -3.01932e-18 -0.0950994 1.03077 6.12043e-18 0 0 1)
(1.01989 -0.0952548 -2.89215e-18 -0.0952548 1.02805 -2.77083e-18 0 0 1)
(1.02261 -0.0953326 -6.02527e-18 -0.0953326 1.02533 3.23946e-18 0 0 1)
(1.02533 -0.0953326 7.9611e-18 -0.0953326 1.02261 3.41994e-18 0 0 1)
(1.02805 -0.0952548 3.86305e-20 -0.0952548 1.01989 4.03219e-20 0 0 1)
(1.03077 -0.0950994 4.72726e-18 -0.0950994 1.01717 -4.51568e-18 0 0 1)
(1.03348 -0.0948663 -3.98384e-18 -0.0948663 1.01446 -4.40339e-18 0 0 1)
(1.03619 -0.094556 -2.30203e-18 -0.094556 1.01175 7.28217e-18 0 0 1)
(1.03889 -0.0941685 -3.7497e-18 -0.0941685 1.00906 6.42348e-19 0 0 1)
(1.04157 -0.0937041 6.24716e-18 -0.0937041 1.00637 -2.70796e-18 0 0 1)
(1.04424 -0.0931634 -1.17224e-18 -0.0931634 1.0037 -6.66363e-18 0 0 1)
(1.04689 -0.0925467 -5.27939e-18 -0.0925467 1.00105 9.16417e-18 0 0 1)
(1.04952 -0.0918545 1.23688e-18 -0.0918545 0.998418 1.62792e-18 0 0 1)
(1.05213 -0.0910874 -1.6572e-20 -0.0910874 0.995806 -2.24702e-20 0 0 1)
(1.05472 -0.0902459 3.83966e-18 -0.0902459 0.993216 -2.50998e-19 0 0 1)
(1.05729 -0.0893309 1.52672e-18 -0.0893309 0.990652 -3.53201e-18 0 0 1)
(1.05983 -0.088343 8.12559e-18 -0.088343 0.988114 -5.48823e-18 0 0 1)
(1.06233 -0.0872831 -9.83739e-18 -0.0872831 0.985606 -3.1111e-18 0 0 1)
(1.06481 -0.086152 -4.49098e-18 -0.086152 0.983129 5.12819e-18 0 0 1)
(1.06725 -0.0849506 5.58823e-18 -0.0849506 0.980686 -3.39173e-18 0 0 1)
(1.06966 -0.0836799 -3.54959e-18 -0.0836799 0.978278 6.8282e-18 0 0 1)
(1.07203 -0.082341 -2.85531e-18 -0.082341 0.975907 1.59117e-18 0 0 1)
(1.07437 -0.0809349 5.71481e-18 -0.0809349 0.973575 -3.1737e-18 0 0 1)
(1.07666 -0.0794628 1.93259e-18 -0.0794628 0.971284 -3.31036e-18 0 0 1)
(1.0789 -0.0779259 -9.28318e-19 -0.0779259 0.969037 -1.79021e-18 0 0 1)
(1.08111 -0.0763254 -2.91649e-18 -0.0763254 0.966834 1.4755e-18 0 0 1)
(1.08326 -0.0746627 2.61831e-18 -0.0746627 0.964678 5.42283e-18 0 0 1)
(1.08537 -0.0729391 1.17795e-20 -0.0729391 0.96257 2.53137e-20 0 0 1)
(1.08743 -0.071156 6.7672e-18 -0.071156 0.960512 -8.83683e-19 0 0 1)
(1.08943 -0.0693148 -7.55527e-18 -0.0693148 0.958506 -1.01363e-18 0 0 1)
(1.09139 -0.0674172 2.26172e-18 -0.0674172 0.956553 5.46028e-18 0 0 1)
(1.09329 -0.0654645 6.91266e-18 -0.0654645 0.954655 -9.15356e-18 0 0 1)
(1.09513 -0.0634585 -6.11825e-18 -0.0634585 0.952814 2.302e-18 0 0 1)
(1.09691 -0.0614006 -3.06568e-18 -0.0614006 0.951031 1.13343e-18 0 0 1)
(1.09863 -0.0592927 -5.5082e-18 -0.0592927 0.949308 4.05682e-18 0 0 1)
(1.1003 -0.0571365 9.9184e-18 -0.0571365 0.947645 -1.24938e-18 0 0 1)
(1.1019 -0.0549336 3.37522e-20 -0.0549336 0.946044 1.06459e-19 0 0 1)
(1.10343 -0.052686 -5.70106e-18 -0.052686 0.944508 3.737e-18 0 0 1)
(1.10491 -0.0503954 -5.3896e-19 -0.0503954 0.943035 -1.88522e-18 0 0 1)
(1.10631 -0.0480636 1.03855e-18 -0.0480636 0.941629 3.83935e-18 0 0 1)
(1.10765 -0.0456927 1.26677e-17 -0.0456927 0.94029 -3.23325e-18 0 0 1)
(1.10892 -0.0432845 -7.27828e-18 -0.0432845 0.93902 -2.31428e-18 0 0 1)
(1.11012 -0.040841 -1.27672e-17 -0.040841 0.937818 2.81571e-18 0 0 1)
(1.11125 -0.0383642 8.04986e-18 -0.0383642 0.936687 6.52285e-18 0 0 1)
(1.11231 -0.0358561 2.82959e-18 -0.0358561 0.935627 -2.56432e-18 0 0 1)
(1.1133 -0.0333187 -6.43306e-18 -0.0333187 0.934639 1.16065e-18 0 0 1)
(1.11422 -0.0307542 3.54732e-18 -0.0307542 0.933724 1.4138e-18 0 0 1)
(1.11506 -0.0281646 1.26259e-17 -0.0281646 0.932883 -3.94691e-18 0 0 1)
(1.11582 -0.025552 -3.22899e-18 -0.025552 0.932116 5.11199e-19 0 0 1)
(1.11652 -0.0229186 -9.98249e-18 -0.0229186 0.931424 -8.56069e-19 0 0 1)
(1.11713 -0.0202665 0 -0.0202665 0.930807 0 0 0 1)
(1.11767 -0.0175978 3.2531e-18 -0.0175978 0.930266 -3.16843e-19 0 0 1)
(1.11814 -0.0149148 9.77407e-18 -0.0149148 0.929802 -7.83239e-19 0 0 1)
(1.11853 -0.0122197 -3.51623e-18 -0.0122197 0.929414 -3.74531e-18 0 0 1)
(1.11884 -0.00951453 -6.43081e-18 -0.00951453 0.929104 2.28488e-18 0 0 1)
(1.11907 -0.00680164 9.79864e-18 -0.00680164 0.928871 -3.63928e-19 0 0 1)
(1.11923 -0.0040832 -8.51878e-20 -0.0040832 0.928716 -3.97642e-18 0 0 1)
(1.1193 -0.00136144 -6.53696e-18 -0.00136144 0.928638 1.87536e-20 0 0 1)
(0.93021 -0.00133129 -1.99977e-18 -0.00133129 1.11665 -1.42785e-20 0 0 1)
(0.930286 -0.00399277 -3.85376e-18 -0.00399277 1.11658 -6.38689e-18 0 0 1)
(0.930438 -0.006651 -1.475e-21 -0.006651 1.11642 -5.26589e-23 0 0 1)
(0.930666 -0.00930381 -4.85776e-19 -0.00930381 1.1162 9.44185e-18 0 0 1)
(0.93097 -0.011949 -3.62197e-18 -0.011949 1.11589 -6.54899e-18 0 0 1)
(0.931349 -0.0145845 2.01902e-18 -0.0145845 1.11551 1.589e-19 0 0 1)
(0.931803 -0.0172081 -6.20659e-20 -0.0172081 1.11506 -5.7775e-21 0 0 1)
(0.932331 -0.0198176 4.36404e-20 -0.0198176 1.11453 4.69186e-21 0 0 1)
(0.932934 -0.022411 -2.80172e-18 -0.022411 1.11393 6.00785e-18 0 0 1)
(0.933611 -0.0249861 2.38445e-18 -0.0249861 1.11325 -2.85519e-18 0 0 1)
(0.934361 -0.0275408 -3.64708e-20 -0.0275408 1.1125 -5.50979e-21 0 0 1)
(0.935184 -0.0300731 4.89669e-18 -0.0300731 1.11168 7.20028e-18 0 0 1)
(0.936079 -0.0325808 -5.00908e-18 -0.0325808 1.11078 5.50091e-18 0 0 1)
(0.937045 -0.035062 -7.63541e-19 -0.035062 1.10982 -6.57089e-18 0 0 1)
(0.938081 -0.0375145 -5.7825e-18 -0.0375145 1.10878 -1.21473e-18 0 0 1)
(0.939188 -0.0399365 -6.95275e-19 -0.0399365 1.10768 3.07379e-18 0 0 1)
(0.940362 -0.0423259 1.47138e-18 -0.0423259 1.1065 -6.12874e-18 0 0 1)
(0.941605 -0.0446807 2.71224e-18 -0.0446807 1.10526 -2.56021e-18 0 0 1)
(0.942914 -0.0469992 -1.94824e-18 -0.0469992 1.10395 -5.27002e-19 0 0 1)
(0.944289 -0.0492793 -3.84557e-18 -0.0492793 1.10257 -1.0994e-18 0 0 1)
(0.945729 -0.0515191 -8.96541e-19 -0.0515191 1.10113 3.02126e-18 0 0 1)
(0.947231 -0.053717 -4.76028e-18 -0.053717 1.09963 1.79682e-18 0 0 1)
(0.948796 -0.0558711 1.89748e-18 -0.0558711 1.09807 6.31541e-19 0 0 1)
(0.950422 -0.0579796 1.87085e-18 -0.0579796 1.09644 6.52498e-19 0 0 1)
(0.952108 -0.0600408 1.34133e-18 -0.0600408 1.09476 -9.57459e-18 0 0 1)
(0.953851 -0.062053 -7.17885e-19 -0.062053 1.09301 -3.64619e-18 0 0 1)
(0.955652 -0.0640147 -5.2958e-19 -0.0640147 1.09121 6.57222e-18 0 0 1)
(0.957507 -0.0659241 -8.54985e-18 -0.0659241 1.08936 -1.30365e-19 0 0 1)
(0.959417 -0.0677797 -3.07936e-18 -0.0677797 1.08745 2.10441e-18 0 0 1)
(0.961378 -0.0695801 1.32686e-18 -0.0695801 1.08548 -2.85881e-18 0 0 1)
(0.963391 -0.0713237 2.29982e-18 -0.0713237 1.08347 4.54615e-18 0 0 1)
(0.965452 -0.0730092 2.19515e-18 -0.0730092 1.08141 4.55945e-18 0 0 1)
(0.96756 -0.074635 4.05691e-20 -0.074635 1.0793 2.03074e-20 0 0 1)
(0.969714 -0.0762001 1.43126e-18 -0.0762001 1.07715 -2.80777e-18 0 0 1)
(0.971912 -0.0777029 1.50987e-18 -0.0777029 1.07495 -2.76629e-18 0 0 1)
(0.974152 -0.0791424 -7.4163e-21 -0.0791424 1.07271 -4.11862e-21 0 0 1)
(0.976432 -0.0805174 1.5809e-18 -0.0805174 1.07043 -2.72627e-18 0 0 1)
(0.978751 -0.0818267 -6.60104e-18 -0.0818267 1.06811 3.41224e-18 0 0 1)
(0.981106 -0.0830692 -6.66356e-18 -0.0830692 1.06576 3.30877e-18 0 0 1)
(0.983495 -0.084244 3.37807e-18 -0.084244 1.06337 -5.3212e-18 0 0 1)
(0.985917 -0.08535 1.01354e-17 -0.08535 1.06095 -9.10638e-19 0 0 1)
(0.98837 -0.0863865 0 -0.0863865 1.05849 0 0 0 1)
(0.990851 -0.0873525 -3.17478e-19 -0.0873525 1.05601 7.45272e-18 0 0 1)
(0.993358 -0.0882473 -1.86696e-18 -0.0882473 1.0535 2.53923e-18 0 0 1)
(0.995891 -0.08907 3.7559e-18 -0.08907 1.05097 -5.06161e-18 0 0 1)
(0.998445 -0.0898202 -3.4961e-18 -0.0898202 1.04842 1.30159e-18 0 0 1)
(1.00102 -0.0904971 1.1758e-18 -0.0904971 1.04584 4.92186e-18 0 0 1)
(1.00361 -0.0911001 3.94051e-18 -0.0911001 1.04325 -4.91926e-18 0 0 1)
(1.00622 -0.0916289 -3.0574e-18 -0.0916289 1.04064 -2.53667e-18 0 0 1)
(1.00885 -0.0920829 -2.01486e-18 -0.0920829 1.03802 2.42357e-18 0 0 1)
(1.01148 -0.0924618 -4.46436e-18 -0.0924618 1.03538 -3.92455e-18 0 0 1)
(1.01413 -0.0927653 -2.30355e-18 -0.0927653 1.03274 -6.33388e-18 0 0 1)
(1.01678 -0.0929932 -3.59504e-18 -0.0929932 1.03008 9.58768e-19 0 0 1)
(1.01944 -0.0931452 -7.24124e-18 -0.0931452 1.02742 1.79119e-18 0 0 1)
(1.0221 -0.0932212 8.82454e-18 -0.0932212 1.02476 -9.0019e-18 0 0 1)
(1.02476 -0.0932212 7.30134e-18 -0.0932212 1.0221 -1.5716e-18 0 0 1)
(1.02742 -0.0931452 -1.46364e-17 -0.0931452 1.01944 2.94448e-18 0 0 1)
(1.03008 -0.0929932 -9.71335e-19 -0.0929932 1.01678 3.58154e-18 0 0 1)
(1.03274 -0.0927653 -6.55661e-19 -0.0927653 1.01413 -1.01194e-17 0 0 1)
(1.03538 -0.0924618 2.63414e-18 -0.0924618 1.01148 2.99646e-18 0 0 1)
(1.03802 -0.0920829 -7.37833e-18 -0.0920829 1.00885 1.06608e-18 0 0 1)
(1.04064 -0.0916289 3.80182e-18 -0.0916289 1.00622 4.58227e-18 0 0 1)
(1.04325 -0.0911001 1.17794e-18 -0.0911001 1.00361 -8.58321e-18 0 0 1)
(1.04584 -0.0904971 3.69986e-18 -0.0904971 1.00102 -3.85737e-19 0 0 1)
(1.04842 -0.0898202 -3.80365e-18 -0.0898202 0.998445 5.4122e-18 0 0 1)
(1.05097 -0.08907 4.71597e-18 -0.08907 0.995891 6.39447e-18 0 0 1)
(1.0535 -0.0882473 -1.14327e-18 -0.0882473 0.993358 -1.59744e-18 0 0 1)
(1.05601 -0.0873525 -2.01944e-20 -0.0873525 0.990851 -2.90855e-20 0 0 1)
(1.05849 -0.0863865 -2.20386e-18 -0.0863865 0.98837 -3.27295e-18 0 0 1)
(1.06095 -0.08535 -5.90018e-18 -0.08535 0.985917 -3.27313e-18 0 0 1)
(1.06337 -0.084244 5.31666e-18 -0.084244 0.983495 -3.38524e-18 0 0 1)
(1.06576 -0.0830692 7.00921e-18 -0.0830692 0.981106 -6.65648e-18 0 0 1)
(1.06811 -0.0818267 -7.43907e-18 -0.0818267 0.978751 -1.85819e-19 0 0 1)
(1.07043 -0.0805174 -6.24087e-18 -0.0805174 0.976432 8.11782e-18 0 0 1)
(1.07271 -0.0791424 3.73256e-18 -0.0791424 0.974152 2.30043e-19 0 0 1)
(1.07495 -0.0777029 8.72268e-21 -0.0777029 0.971912 1.62492e-20 0 0 1)
(1.07715 -0.0762001 2.79996e-18 -0.0762001 0.969714 -1.44632e-18 0 0 1)
(1.0793 -0.074635 8.44827e-18 -0.074635 0.96756 -4.24396e-18 0 0 1)
(1.08141 -0.0730092 8.68883e-19 -0.0730092 0.965452 1.79956e-18 0 0 1)
(1.08347 -0.0713237 -4.03838e-18 -0.0713237 0.963391 6.26101e-18 0 0 1)
(1.08548 -0.0695801 8.10203e-19 -0.0695801 0.961378 1.80815e-18 0 0 1)
(1.08745 -0.0677797 -2.3602e-18 -0.0677797 0.959417 -5.47555e-18 0 0 1)
(1.08936 -0.0659241 -2.16228e-18 -0.0659241 0.957507 3.01492e-18 0 0 1)
(1.09121 -0.0640147 1.0493e-20 -0.0640147 0.955652 2.63921e-20 0 0 1)
(1.09301 -0.062053 2.9496e-18 -0.062053 0.953851 -1.10979e-18 0 0 1)
(1.09476 -0.0600408 -6.85468e-19 -0.0600408 0.952108 -1.87867e-18 0 0 1)
(1.09644 -0.0579796 -2.97729e-18 -0.0579796 0.950422 1.03312e-18 0 0 1)
(1.09807 -0.0558711 6.58905e-18 -0.0558711 0.948796 -1.61565e-19 0 0 1)
(1.09963 -0.053717 2.44122e-20 -0.053717 0.947231 7.69994e-20 0 0 1)
(1.10113 -0.0515192 -8.49199e-18 -0.0515191 0.945729 4.5867e-18 0 0 1)
(1.10257 -0.0492793 2.48172e-18 -0.0492793 0.944289 -2.78425e-18 0 0 1)
(1.10395 -0.0469992 5.12474e-18 -0.0469992 0.942914 6.87624e-18 0 0 1)
(1.10526 -0.0446807 -4.94568e-19 -0.0446807 0.941605 -1.9377e-18 0 0 1)
(1.1065 -0.0423259 -7.04754e-18 -0.0423259 0.940362 -2.3557e-18 0 0 1)
(1.10768 -0.0399365 6.57042e-18 -0.0399365 0.939188 4.88509e-19 0 0 1)
(1.10878 -0.0375145 3.91059e-18 -0.0375145 0.938081 3.28635e-18 0 0 1)
(1.10982 -0.035062 -9.2834e-18 -0.035062 0.937045 1.78979e-18 0 0 1)
(1.11078 -0.0325808 0 -0.0325808 0.936079 0 0 0 1)
(1.11168 -0.0300731 1.30472e-18 -0.0300731 0.935184 7.87345e-18 0 0 1)
(1.1125 -0.0275408 9.34498e-18 -0.0275408 0.934361 -1.43397e-18 0 0 1)
(1.11325 -0.0249861 -3.65067e-18 -0.0249861 0.933611 -3.4433e-18 0 0 1)
(1.11393 -0.022411 -9.14855e-18 -0.022411 0.932934 3.08134e-18 0 0 1)
(1.11453 -0.0198176 2.92106e-18 -0.0198176 0.932331 -2.31185e-18 0 0 1)
(1.11506 -0.0172081 2.95127e-18 -0.0172081 0.931803 -2.29671e-18 0 0 1)
(1.11551 -0.0145845 2.98588e-18 -0.0145845 0.931349 -2.22749e-18 0 0 1)
(1.11589 -0.011949 -2.5447e-19 -0.011949 0.93097 -3.95457e-18 0 0 1)
(1.1162 -0.00930381 9.89876e-20 -0.00930381 0.930666 1.9789e-18 0 0 1)
(1.11642 -0.006651 0 -0.006651 0.930438 0 0 0 1)
(1.11658 -0.00399277 -8.48754e-20 -0.00399277 0.930286 -3.96184e-18 0 0 1)
(1.11665 -0.00133129 0 -0.00133129 0.93021 0 0 0 1)
(0.932454 -0.00129717 2.67085e-20 -0.00129717 1.11412 -3.04061e-18 0 0 1)
(0.932528 -0.00389046 2.5697e-20 -0.00389046 1.11404 5.50497e-22 0 0 1)
(0.932676 -0.00648057 -7.81642e-18 -0.00648057 1.1139 -2.79164e-19 0 0 1)
(0.932898 -0.0090654 -4.03313e-18 -0.0090654 1.11367 2.84278e-18 0 0 1)
(0.933193 -0.0116428 5.8413e-18 -0.0116428 1.11338 3.75879e-19 0 0 1)
(0.933563 -0.0142108 -3.37417e-18 -0.0142108 1.11301 -6.36579e-18 0 0 1)
(0.934005 -0.0167671 -1.97164e-18 -0.0167671 1.11257 -1.83534e-19 0 0 1)
(0.93452 -0.0193098 -4.49117e-18 -0.0193098 1.11205 5.63363e-18 0 0 1)
(0.935108 -0.0218367 1.55915e-18 -0.0218367 1.11146 3.25344e-18 0 0 1)
(0.935767 -0.0243458 3.93172e-18 -0.0243458 1.1108 5.36672e-19 0 0 1)
(0.936498 -0.0268351 1.33442e-18 -0.0268351 1.11007 -9.02407e-18 0 0 1)
(0.9373 -0.0293025 1.03506e-18 -0.0293025 1.10927 -5.99285e-18 0 0 1)
(0.938172 -0.0317459 1.66758e-18 -0.0317459 1.1084 1.26601e-17 0 0 1)
(0.939113 -0.0341635 -6.20404e-19 -0.0341635 1.10746 2.977e-18 0 0 1)
(0.940123 -0.0365532 1.26771e-18 -0.0365532 1.10645 -5.94787e-18 0 0 1)
(0.941201 -0.0389131 3.81913e-18 -0.0389131 1.10537 8.59405e-19 0 0 1)
(0.942345 -0.0412413 1.8831e-18 -0.0412413 1.10423 4.52093e-19 0 0 1)
(0.943556 -0.0435358 -7.14633e-19 -0.0435358 1.10302 2.9558e-18 0 0 1)
(0.944832 -0.0457948 -1.57832e-18 -0.0457948 1.10174 5.87306e-18 0 0 1)
(0.946172 -0.0480165 9.22814e-18 -0.0480165 1.1004 -3.68687e-18 0 0 1)
(0.947574 -0.050199 4.92188e-20 -0.050199 1.099 1.48345e-20 0 0 1)
(0.949039 -0.0523405 1.83857e-18 -0.0523405 1.09753 5.82906e-19 0 0 1)
(0.950563 -0.0544394 6.56558e-18 -0.0544394 1.09601 -1.01948e-18 0 0 1)
(0.952148 -0.0564939 8.39363e-19 -0.0564939 1.09442 3.5131e-18 0 0 1)
(0.95379 -0.0585023 -1.84344e-18 -0.0585023 1.09278 -6.72613e-19 0 0 1)
(0.955489 -0.0604629 -3.61725e-18 -0.0604629 1.09108 -1.37867e-18 0 0 1)
(0.957243 -0.0623743 -1.09487e-18 -0.0623743 1.08933 2.83693e-18 0 0 1)
(0.959051 -0.0642348 9.23534e-21 -0.0642348 1.08752 3.82542e-21 0 0 1)
(0.960912 -0.0660429 6.59294e-18 -0.0660429 1.08566 -1.04028e-17 0 0 1)
(0.962823 -0.0677971 3.04391e-18 -0.0677971 1.08375 -1.9681e-18 0 0 1)
(0.964784 -0.0694961 -2.58906e-18 -0.0694961 1.08179 5.50285e-18 0 0 1)
(0.966792 -0.0711383 -3.21481e-20 -0.0711383 1.07978 -1.55221e-20 0 0 1)
(0.968847 -0.0727225 3.89203e-19 -0.0727225 1.07773 3.59522e-18 0 0 1)
(0.970945 -0.0742475 -1.42702e-18 -0.0742475 1.07563 2.68524e-18 0 0 1)
(0.973087 -0.0757118 -2.01533e-18 -0.0757118 1.07348 -4.53298e-18 0 0 1)
(0.97527 -0.0771144 3.18743e-18 -0.0771144 1.0713 -1.70802e-18 0 0 1)
(0.977491 -0.0784541 0 -0.0784541 1.06908 0 0 0 1)
(0.97975 -0.0797299 3.37523e-18 -0.0797299 1.06682 2.00262e-18 0 0 1)
(0.982045 -0.0809406 3.31586e-18 -0.0809406 1.06453 2.03196e-18 0 0 1)
(0.984373 -0.0820852 3.19937e-18 -0.0820852 1.0622 -5.1722e-18 0 0 1)
(0.986733 -0.083163 3.29952e-18 -0.083163 1.05984 2.15392e-18 0 0 1)
(0.989122 -0.0841729 -3.41802e-18 -0.0841729 1.05745 5.03008e-18 0 0 1)
(0.99154 -0.0851141 -3.44727e-18 -0.0851141 1.05503 5.01008e-18 0 0 1)
(0.993984 -0.085986 3.14968e-18 -0.085986 1.05259 2.25419e-18 0 0 1)
(0.996451 -0.0867876 -3.34673e-18 -0.0867876 1.05012 1.30999e-18 0 0 1)
(0.99894 -0.0875186 -1.87594e-20 -0.0875186 1.04763 -1.42532e-20 0 0 1)
(1.00145 -0.0881781 4.98717e-18 -0.0881781 1.04512 4.16611e-20 0 0 1)
(1.00398 -0.0887657 -5.34997e-18 -0.0887657 1.0426 3.49904e-18 0 0 1)
(1.00652 -0.0892809 7.75419e-18 -0.0892809 1.04005 -9.3706e-18 0 0 1)
(1.00908 -0.0897233 5.10321e-19 -0.0897233 1.0375 -3.56295e-18 0 0 1)
(1.01164 -0.0900925 -4.57796e-18 -0.0900925 1.03493 8.12138e-18 0 0 1)
(1.01422 -0.0903883 -5.75326e-19 -0.0903883 1.03235 3.57998e-18 0 0 1)
(1.01681 -0.0906103 -2.05528e-18 -0.0906103 1.02977 2.24105e-18 0 0 1)
(1.0194 -0.0907584 2.09429e-18 -0.0907584 1.02718 -2.20456e-18 0 0 1)
(1.02199 -0.0908325 7.05157e-18 -0.0908325 1.02458 -1.5881e-18 0 0 1)
(1.02458 -0.0908325 -9.1813e-18 -0.0908325 1.02199 3.68043e-18 0 0 1)
(1.02718 -0.0907584 -2.20851e-18 -0.0907584 1.0194 2.09016e-18 0 0 1)
(1.02977 -0.0906103 7.14815e-18 -0.0906103 1.01681 -1.24703e-18 0 0 1)
(1.03235 -0.0903883 9.24444e-19 -0.0903883 1.01422 -3.51052e-18 0 0 1)
(1.03493 -0.0900925 3.39402e-20 -0.0900925 1.01164 3.86085e-20 0 0 1)
(1.0375 -0.0897233 1.25263e-18 -0.0897233 1.00908 1.46664e-18 0 0 1)
(1.04005 -0.0892809 2.34197e-18 -0.0892809 1.00652 -1.93937e-18 0 0 1)
(1.0426 -0.0887657 -1.1444e-18 -0.0887657 1.00398 3.42589e-18 0 0 1)
(1.04512 -0.0881781 2.39771e-18 -0.0881781 1.00145 -1.87002e-18 0 0 1)
(1.04763 -0.0875186 7.25567e-18 -0.0875186 0.99894 -5.52894e-18 0 0 1)
(1.05012 -0.0867876 -2.5615e-18 -0.0867876 0.996451 6.77275e-18 0 0 1)
(1.05259 -0.085986 -7.43469e-18 -0.085986 0.993984 5.28582e-18 0 0 1)
(1.05503 -0.0851141 2.24278e-18 -0.0851141 0.99154 3.23022e-18 0 0 1)
(1.05745 -0.0841729 -2.18646e-18 -0.0841729 0.989122 -3.24711e-18 0 0 1)
(1.05984 -0.083163 2.14963e-18 -0.083163 0.986733 3.29295e-18 0 0 1)
(1.0622 -0.0820852 1.04489e-18 -0.0820852 0.984373 1.6517e-18 0 0 1)
(1.06453 -0.0809406 -2.02786e-18 -0.0809406 0.982045 -3.30916e-18 0 0 1)
(1.06682 -0.0797299 6.29201e-19 -0.0797299 0.97975 -4.89858e-18 0 0 1)
(1.06908 -0.0784541 7.22314e-18 -0.0784541 0.977491 3.66643e-19 0 0 1)
(1.0713 -0.0771144 9.44044e-19 -0.0771144 0.97527 1.69992e-18 0 0 1)
(1.07348 -0.0757118 -9.36558e-19 -0.0757118 0.973087 -1.74468e-18 0 0 1)
(1.07563 -0.0742475 8.95116e-19 -0.0742475 0.970945 1.72618e-18 0 0 1)
(1.07773 -0.0727225 -1.75673e-18 -0.0727225 0.968847 -3.5095e-18 0 0 1)
(1.07978 -0.0711383 3.7744e-18 -0.0711383 0.966792 -6.16945e-18 0 0 1)
(1.08179 -0.0694961 6.6265e-21 -0.0694961 0.964784 1.42403e-20 0 0 1)
(1.08375 -0.0677971 -8.3299e-18 -0.0677971 0.962823 3.71841e-18 0 0 1)
(1.08566 -0.0660429 -5.57764e-18 -0.0660429 0.960912 2.42365e-18 0 0 1)
(1.08752 -0.0642348 8.41684e-18 -0.0642348 0.959051 -3.51728e-18 0 0 1)
(1.08933 -0.0623743 6.38486e-18 -0.0623743 0.957243 -4.01426e-19 0 0 1)
(1.09108 -0.0604629 -8.5286e-18 -0.0604629 0.955489 3.2368e-18 0 0 1)
(1.09278 -0.0585023 -4.20003e-18 -0.0585023 0.95379 -2.63993e-18 0 0 1)
(1.09442 -0.0564939 -1.28656e-18 -0.0564939 0.952148 -3.68886e-18 0 0 1)
(1.09601 -0.0544394 9.26286e-18 -0.0544394 0.950563 -1.05546e-18 0 0 1)
(1.09753 -0.0523405 -1.16279e-18 -0.0523405 0.949039 -3.6676e-18 0 0 1)
(1.099 -0.050199 -8.17892e-18 -0.050199 0.947574 4.47435e-18 0 0 1)
(1.1004 -0.0480165 9.29956e-18 -0.0480165 0.946172 -6.57793e-19 0 0 1)
(1.10174 -0.0457948 1.08128e-20 -0.0457948 0.944832 3.99728e-20 0 0 1)
(1.10302 -0.0435358 -6.87141e-18 -0.0435358 0.943556 -2.33125e-18 0 0 1)
(1.10423 -0.0412413 6.00025e-21 -0.0412413 0.942345 2.49927e-20 0 0 1)
(1.10537 -0.0389131 8.52038e-19 -0.0389131 0.941201 3.78639e-18 0 0 1)
(1.10645 -0.0365532 2.17891e-18 -0.0365532 0.940123 -4.4184e-18 0 0 1)
(1.10746 -0.0341635 -3.3613e-18 -0.0341635 0.939113 -1.3483e-18 0 0 1)
(1.1084 -0.0317459 6.3241e-18 -0.0317459 0.938172 8.00767e-19 0 0 1)
(1.10927 -0.0293025 3.32236e-18 -0.0293025 0.9373 1.44937e-18 0 0 1)
(1.11007 -0.0268351 -5.72658e-18 -0.0268351 0.936498 2.80567e-18 0 0 1)
(1.1108 -0.0243458 -5.25954e-19 -0.0243458 0.935767 -3.8532e-18 0 0 1)
(1.11146 -0.0218367 -5.5627e-18 -0.0218367 0.935108 4.62218e-18 0 0 1)
(1.11205 -0.0193098 -5.83767e-18 -0.0193098 0.93452 2.59334e-18 0 0 1)
(1.11257 -0.0167671 3.20997e-18 -0.0167671 0.934005 1.67701e-18 0 0 1)
(1.11301 -0.0142108 5.75617e-18 -0.0142108 0.933563 -4.37188e-18 0 0 1)
(1.11338 -0.0116428 3.03527e-18 -0.0116428 0.933193 -1.82437e-19 0 0 1)
(1.11367 -0.0090654 -1.96071e-19 -0.0090654 0.932898 -3.91973e-18 0 0 1)
(1.1139 -0.00648057 0 -0.00648057 0.932676 0 0 0 1)
(1.11404 -0.00389046 0 -0.00389046 0.932528 0 0 0 1)
(1.11412 -0.00129717 0 -0.00129717 0.932454 0 0 0 1)
(0.934238 -0.00126696 -1.95388e-18 -0.00126696 1.11167 -1.39509e-20 0 0 1)
(0.93431 -0.00379984 -1.01057e-19 -0.00379984 1.1116 5.86972e-18 0 0 1)
(0.934455 -0.00632962 1.71849e-18 -0.00632962 1.11145 5.93565e-18 0 0 1)
(0.934671 -0.00885424 5.71976e-19 -0.00885424 1.11124 -1.17271e-17 0 0 1)
(0.93496 -0.0113716 4.24663e-18 -0.0113716 1.11095 -5.60941e-18 0 0 1)
(0.935321 -0.0138798 -4.78236e-18 -0.0138798 1.11059 1.1401e-17 0 0 1)
(0.935753 -0.0163766 -1.4552e-20 -0.0163766 1.11016 -1.35461e-21 0 0 1)
(0.936256 -0.01886 4.50299e-18 -0.01886 1.10965 -5.42024e-18 0 0 1)
(0.93683 -0.0213281 6.51811e-19 -0.0213281 1.10908 -5.83454e-18 0 0 1)
(0.937474 -0.0237787 1.91602e-18 -0.0237787 1.10843 2.61534e-19 0 0 1)
(0.938188 -0.02621 6.7236e-18 -0.02621 1.10772 6.95291e-18 0 0 1)
(0.938971 -0.0286199 -3.78671e-18 -0.0286199 1.10694 -6.27504e-19 0 0 1)
(0.939823 -0.0310065 -1.01804e-18 -0.0310065 1.10609 5.78164e-18 0 0 1)
(0.940742 -0.0333677 -4.84568e-20 -0.0333677 1.10517 -9.45889e-21 0 0 1)
(0.941728 -0.0357018 -6.81155e-19 -0.0357018 1.10418 -6.14176e-18 0 0 1)
(0.942781 -0.0380067 0 -0.0380067 1.10313 0 0 0 1)
(0.943899 -0.0402806 -1.89995e-18 -0.0402806 1.10201 -4.56137e-19 0 0 1)
(0.945082 -0.0425217 0 -0.0425217 1.10083 0 0 0 1)
(0.946328 -0.0447281 6.72333e-18 -0.0447281 1.09958 -1.03444e-17 0 0 1)
(0.947636 -0.046898 3.7186e-18 -0.046898 1.09827 1.0631e-18 0 0 1)
(0.949006 -0.0490297 -7.1438e-18 -0.0490297 1.0969 1.01096e-17 0 0 1)
(0.950436 -0.0511214 1.71752e-18 -0.0511214 1.09547 -5.61398e-18 0 0 1)
(0.951926 -0.0531713 -3.66104e-18 -0.0531713 1.09398 -1.21851e-18 0 0 1)
(0.953473 -0.055178 -5.71147e-18 -0.055178 1.09244 1.04427e-17 0 0 1)
(0.955077 -0.0571396 1.78919e-18 -0.0571396 1.09083 6.52818e-19 0 0 1)
(0.956736 -0.0590546 3.90717e-18 -0.0590546 1.08917 -4.79331e-18 0 0 1)
(0.95845 -0.0609214 1.78339e-18 -0.0609214 1.08746 7.09044e-19 0 0 1)
(0.960216 -0.0627386 3.54618e-18 -0.0627386 1.08569 1.46887e-18 0 0 1)
(0.962033 -0.0645045 -1.79434e-18 -0.0645045 1.08388 -7.73439e-19 0 0 1)
(0.9639 -0.0662179 3.17178e-20 -0.0662179 1.08201 1.42122e-20 0 0 1)
(0.965815 -0.0678773 -2.45439e-18 -0.0678773 1.08009 5.33289e-18 0 0 1)
(0.967776 -0.0694813 -1.31611e-20 -0.0694813 1.07813 -6.3546e-21 0 0 1)
(0.969783 -0.0710286 4.41491e-20 -0.0710286 1.07613 2.20994e-20 0 0 1)
(0.971833 -0.072518 -4.42809e-18 -0.072518 1.07408 4.31668e-18 0 0 1)
(0.973925 -0.0739483 4.47641e-18 -0.0739483 1.07198 -4.25992e-18 0 0 1)
(0.976056 -0.0753182 2.87175e-18 -0.0753182 1.06985 -5.12024e-18 0 0 1)
(0.978226 -0.0766267 2.90175e-18 -0.0766267 1.06768 -5.1033e-18 0 0 1)
(0.980433 -0.0778727 1.2569e-20 -0.0778727 1.06548 7.45753e-21 0 0 1)
(0.982674 -0.0790552 -9.43706e-18 -0.0790552 1.06323 7.98721e-18 0 0 1)
(0.984948 -0.0801732 3.1053e-18 -0.0801732 1.06096 -4.98215e-18 0 0 1)
(0.987252 -0.0812258 2.78103e-20 -0.0812258 1.05866 -6.99251e-18 0 0 1)
(0.989586 -0.0822122 -3.29938e-18 -0.0822122 1.05632 4.85571e-18 0 0 1)
(0.991948 -0.0831315 0 -0.0831315 1.05396 0 0 0 1)
(0.994334 -0.0839831 -2.75218e-19 -0.0839831 1.05157 7.02214e-18 0 0 1)
(0.996744 -0.0847661 -1.17621e-20 -0.0847661 1.04916 -8.67463e-21 0 0 1)
(0.999175 -0.08548 1.12395e-17 -0.08548 1.04673 1.1669e-18 0 0 1)
(1.00163 -0.0861241 -3.59849e-18 -0.0861241 1.04428 4.63839e-18 0 0 1)
(1.00409 -0.0866981 2.97732e-18 -0.0866981 1.04181 2.39928e-18 0 0 1)
(1.00658 -0.0872013 2.992e-18 -0.0872013 1.03933 2.4824e-18 0 0 1)
(1.00907 -0.0876334 -2.92982e-18 -0.0876334 1.03683 -2.5023e-18 0 0 1)
(1.01158 -0.087994 5.33591e-18 -0.087994 1.03433 -3.12568e-18 0 0 1)
(1.0141 -0.0882828 1.42317e-18 -0.0882828 1.03181 1.28757e-18 0 0 1)
(1.01662 -0.0884997 -4.00766e-18 -0.0884997 1.02928 4.28975e-18 0 0 1)
(1.01915 -0.0886443 2.76108e-18 -0.0886443 1.02675 2.64526e-18 0 0 1)
(1.02169 -0.0887167 5.50565e-18 -0.0887167 1.02422 -2.81596e-18 0 0 1)
(1.02422 -0.0887167 0 -0.0887167 1.02169 0 0 0 1)
(1.02675 -0.0886443 5.31074e-18 -0.0886443 1.01915 5.54327e-18 0 0 1)
(1.02928 -0.0884997 -2.97203e-18 -0.0884997 1.01662 5.42299e-18 0 0 1)
(1.03181 -0.0882828 2.56534e-18 -0.0882828 1.0141 2.83549e-18 0 0 1)
(1.03433 -0.087994 4.42539e-18 -0.087994 1.01158 -3.85742e-18 0 0 1)
(1.03683 -0.0876334 -1.95515e-18 -0.0876334 1.00907 6.75009e-18 0 0 1)
(1.03933 -0.0872013 -2.4824e-18 -0.0872013 1.00658 -2.992e-18 0 0 1)
(1.04181 -0.0866981 8.22101e-18 -0.0866981 1.00409 8.45758e-19 0 0 1)
(1.04428 -0.0861241 1.18276e-18 -0.0861241 1.00163 1.51139e-18 0 0 1)
(1.04673 -0.08548 0 -0.08548 0.999175 0 0 0 1)
(1.04916 -0.0847661 -2.27824e-18 -0.0847661 0.996744 -3.08911e-18 0 0 1)
(1.05157 -0.0839831 4.48803e-18 -0.0839831 0.994334 6.27091e-18 0 0 1)
(1.05396 -0.0831315 -1.50463e-18 -0.0831315 0.991948 8.12628e-18 0 0 1)
(1.05632 -0.0822122 -2.75756e-20 -0.0822122 0.989586 -4.09526e-20 0 0 1)
(1.05866 -0.0812258 8.09557e-18 -0.0812258 0.987252 1.66194e-18 0 0 1)
(1.06096 -0.0801732 -4.96653e-18 -0.0801732 0.984948 3.13e-18 0 0 1)
(1.06323 -0.0790552 9.95131e-19 -0.0790552 0.982674 1.62391e-18 0 0 1)
(1.06548 -0.0778727 7.01994e-18 -0.0778727 0.980433 3.26711e-19 0 0 1)
(1.06768 -0.0766267 0 -0.0766267 0.978226 0 0 0 1)
(1.06985 -0.0753182 -1.35942e-18 -0.0753182 0.976056 9.64376e-18 0 0 1)
(1.07198 -0.0739483 -6.91244e-21 -0.0739483 0.973925 -1.28769e-20 0 0 1)
(1.07408 -0.072518 2.27276e-20 -0.072518 0.971833 4.3829e-20 0 0 1)
(1.07613 -0.0710286 -6.54191e-21 -0.0710286 0.969783 -1.3069e-20 0 0 1)
(1.07813 -0.0694813 5.2973e-18 -0.0694813 0.967776 -2.53029e-18 0 0 1)
(1.08009 -0.0678773 -1.6194e-18 -0.0678773 0.965815 -3.48002e-18 0 0 1)
(1.08201 -0.0662179 1.58375e-18 -0.0662179 0.9639 3.5345e-18 0 0 1)
(1.08388 -0.0645045 2.2928e-18 -0.0645045 0.962033 5.31918e-18 0 0 1)
(1.08569 -0.0627386 2.95105e-18 -0.0627386 0.960216 7.12446e-18 0 0 1)
(1.08746 -0.0609214 -1.41809e-18 -0.0609214 0.95845 -3.56679e-18 0 0 1)