/*--------------------------------*- C++ -*----------------------------------*\
| =========                 |                                                 |
| \\      /  F ield         | OpenFOAM: The Open Source CFD Toolbox           |
|  \\    /   O peration     | Version:  2312                                  |
|   \\  /    A nd           | Website:  www.openfoam.com                      |
|    \\/     M anipulation  |                                                 |
\*---------------------------------------------------------------------------*/
FoamFile
{
    version     2.0;
    format      ascii;
    arch        "LSB;label=32;scalar=64";
    class       volSymmTensorField;
    location    "30";
    object      sigma:Transformed;
}
// * * * * * * * * * * * * * * * * * * * * * * * * * * * * * * * * * * * * * //

dimensions      [1 -1 -2 0 0 0 0];

internalField   nonuniform List<symmTensor> 
12870
(
(-2.94014e+07 -0.0328395 -5.46692e-12 4.34534e+07 -1.18666e-09 -2.44885e+06)
(-2.94014e+07 0.0611595 -7.76048e-10 4.34534e+07 5.9333e-10 -2.44885e+06)
(-2.94014e+07 -0.0423305 1.17364e-09 4.34534e+07 1.18666e-09 -2.44885e+06)
(-2.94014e+07 0.0712679 2.73346e-12 4.34534e+07 -5.9333e-10 -2.44885e+06)
(-2.94014e+07 -0.14742 -3.92124e-10 4.34534e+07 5.9333e-10 -2.44885e+06)
(-2.94014e+07 0.072725 1.17911e-09 4.34534e+07 -2.67252e-18 -2.44885e+06)
(-2.94014e+07 -0.0329756 -3.92124e-10 4.34534e+07 -5.9333e-10 -2.44885e+06)
(-2.94014e+07 0.101196 7.92448e-10 4.34534e+07 5.9333e-10 -2.44885e+06)
(-2.94014e+07 0.0226157 -3.43107e-18 4.34534e+07 1.18666e-09 -2.44885e+06)
(-2.94014e+07 0.0202675 7.86981e-10 4.34534e+07 5.9333e-10 -2.44885e+06)
(-2.94014e+07 -0.0432619 7.86981e-10 4.34534e+07 -5.9333e-10 -2.44885e+06)
(-2.94014e+07 0.0676446 3.89391e-10 4.34534e+07 -2.37332e-09 -2.44885e+06)
(-2.94014e+07 -0.176359 -1.56303e-09 4.34534e+07 2.72498e-18 -2.44885e+06)
(-2.94014e+07 0.156748 -4.11258e-10 4.34534e+07 1.52779e-17 -2.44885e+06)
(-2.94014e+07 -0.11515 -7.76048e-10 4.34534e+07 -5.9333e-10 -2.44885e+06)
(-2.94014e+07 0.043955 -7.92448e-10 4.34534e+07 1.77999e-09 -2.44885e+06)
(-2.94014e+07 -0.0825274 -2.73346e-12 4.34534e+07 5.9333e-10 -2.44885e+06)
(-2.94014e+07 -0.0222354 3.94857e-10 4.34534e+07 8.58268e-19 -2.44885e+06)
(-2.94014e+07 0.00530817 3.92124e-10 4.34534e+07 -5.9333e-10 -2.44885e+06)
(-2.94014e+07 0.00211116 2.73346e-12 4.34534e+07 -5.9333e-10 -2.44885e+06)
(-2.94014e+07 0.0741172 0 4.34534e+07 0 -2.44885e+06)
(-2.94014e+07 -0.106006 -3.92124e-10 4.34534e+07 5.9333e-10 -2.44885e+06)
(-2.94014e+07 0.137706 -1.98712e-18 4.34534e+07 1.18666e-09 -2.44885e+06)
(-2.94014e+07 -0.153876 3.86657e-10 4.34534e+07 -5.9333e-10 -2.44885e+06)
(-2.94014e+07 0.105992 -3.89391e-10 4.34534e+07 -1.18666e-09 -2.44885e+06)
(-2.94014e+07 -0.149716 7.95182e-10 4.34534e+07 1.18666e-09 -2.44885e+06)
(-2.94014e+07 0.0327832 7.73314e-10 4.34534e+07 -1.18666e-09 -2.44885e+06)
(-2.94014e+07 -0.0411641 -7.73314e-10 4.34534e+07 -1.18666e-09 -2.44885e+06)
(-2.94014e+07 0.0723261 -4.05791e-10 4.34534e+07 1.65156e-17 -2.44885e+06)
(-2.94014e+07 -0.103686 -1.16817e-09 4.34534e+07 1.18666e-09 -2.44885e+06)
(-2.94014e+07 0.174742 7.78781e-10 4.34534e+07 2.37332e-09 -2.44885e+06)
(-2.94014e+07 -0.105647 -5.46692e-12 4.34534e+07 -1.18666e-09 -2.44885e+06)
(-2.94014e+07 0.0679765 -3.86657e-10 4.34534e+07 -5.9333e-10 -2.44885e+06)
(-2.94014e+07 -0.047639 -3.97591e-10 4.34534e+07 5.9333e-10 -2.44885e+06)
(-2.94014e+07 0.0330746 3.92124e-10 4.34534e+07 -5.9333e-10 -2.44885e+06)
(-2.94014e+07 -0.0669197 -3.92124e-10 4.34534e+07 -5.9333e-10 -2.44885e+06)
(-2.94014e+07 0.0208364 -5.46692e-12 4.34534e+07 -1.18666e-09 -2.44885e+06)
(-2.94014e+07 -0.0474141 -7.84248e-10 4.34534e+07 -1.18666e-09 -2.44885e+06)
(-2.94014e+07 0.00293417 -1.57396e-09 4.34534e+07 1.18666e-09 -2.44885e+06)
(-2.94014e+07 0.0647759 -7.89715e-10 4.34534e+07 2.37332e-09 -2.44885e+06)
(-2.94014e+07 -0.0977483 7.78781e-10 4.34534e+07 -4.42752e-18 -2.44885e+06)
(-2.94014e+07 0.0126554 1.09338e-11 4.34534e+07 -2.26978e-18 -2.44885e+06)
(-2.94014e+07 0.0819677 7.84248e-10 4.34534e+07 1.18666e-09 -2.44885e+06)
(-2.94014e+07 -0.0204632 -5.46692e-12 4.34534e+07 -1.18666e-09 -2.44885e+06)
(-2.94014e+07 -0.00764062 -3.83924e-10 4.34534e+07 1.29487e-17 -2.44885e+06)
(-2.94014e+07 -0.011891 7.84248e-10 4.34534e+07 1.18666e-09 -2.44885e+06)
(-2.94014e+07 0.1068 0 4.34534e+07 0 -2.44885e+06)
(-2.94014e+07 -0.0956973 3.89391e-10 4.34534e+07 -1.18666e-09 -2.44885e+06)
(-2.94014e+07 0.0545267 -7.26983e-18 4.34534e+07 -2.37332e-09 -2.44885e+06)
(-2.94014e+07 -0.0970983 -1.17911e-09 4.34534e+07 -1.18666e-09 -2.44885e+06)
(-2.94014e+07 0.0879925 -1.18457e-09 4.34534e+07 2.26992e-17 -2.44885e+06)
(-2.94014e+07 -0.0236576 -1.17637e-09 4.34534e+07 1.77999e-09 -2.44885e+06)
(-2.94014e+07 0.00789478 3.83924e-10 4.34534e+07 1.18666e-09 -2.44885e+06)
(-2.94014e+07 0.0815967 -7.84248e-10 4.34534e+07 8.04875e-18 -2.44885e+06)
(-2.94014e+07 -0.128585 -3.94857e-10 4.34534e+07 1.18666e-09 -2.44885e+06)
(-2.94014e+07 0.163946 1.57123e-09 4.34534e+07 -5.9333e-10 -2.44885e+06)
(-2.94014e+07 -0.0482613 1.09338e-11 4.34534e+07 -1.51686e-19 -2.44885e+06)
(-2.94014e+07 -0.0260132 -1.64008e-11 4.34534e+07 -1.18666e-09 -2.44885e+06)
(-2.94014e+07 -0.0622191 -1.1627e-09 4.34534e+07 -1.30758e-17 -2.44885e+06)
(-2.94014e+07 0.100383 7.73314e-10 4.34534e+07 1.18666e-09 -2.44885e+06)
(-2.94014e+07 -0.0556112 -3.8119e-10 4.34534e+07 5.9333e-10 -2.44885e+06)
(-2.94014e+07 0.0718864 3.7299e-10 4.34534e+07 -1.18666e-09 -2.44885e+06)
(-2.94014e+07 -0.137831 -1.15997e-09 4.34534e+07 -5.9333e-10 -2.44885e+06)
(-2.94014e+07 0.0102312 7.76048e-10 4.34534e+07 1.77999e-09 -2.44885e+06)
(-2.94014e+07 -0.12694 4.00324e-10 4.34534e+07 3.13369e-18 -2.44885e+06)
(-2.94014e+07 0.164 -5.46692e-12 4.34534e+07 3.51405e-18 -2.44885e+06)
(-2.94014e+07 -0.186452 3.97591e-10 4.34534e+07 -5.9333e-10 -2.44885e+06)
(-2.94014e+07 0.173209 -3.97591e-10 4.34534e+07 -5.9333e-10 -2.44885e+06)
(-2.94014e+07 -0.116894 -2.73346e-12 4.34534e+07 -1.77999e-09 -2.44885e+06)
(-2.94014e+07 0.151653 -1.56303e-09 4.34534e+07 1.18666e-09 -2.44885e+06)
(-2.94014e+07 -0.0712276 3.78457e-10 4.34534e+07 1.18666e-09 -2.44885e+06)
(-2.94014e+07 -0.000339504 5.46691e-12 4.34534e+07 -1.18666e-09 -2.44885e+06)
(-2.94014e+07 -0.0242922 7.95182e-10 4.34534e+07 1.18666e-09 -2.44885e+06)
(-2.94014e+07 -0.0238189 -8.20037e-12 4.34534e+07 5.9333e-10 -2.44885e+06)
(-2.94014e+07 -0.00426664 -1.12741e-18 4.34534e+07 -1.18666e-09 -2.44885e+06)
(-2.94014e+07 -0.0524983 -3.92124e-10 4.34534e+07 -5.9333e-10 -2.44885e+06)
(-2.94014e+07 0.0152259 -3.94857e-10 4.34534e+07 2.84005e-18 -2.44885e+06)
(-2.94014e+07 0.0826296 2.73346e-12 4.34534e+07 5.9333e-10 -2.44885e+06)
(-2.94014e+07 -0.0492664 1.17911e-09 4.34534e+07 -1.07981e-17 -2.44885e+06)
(-2.94014e+07 0.0642767 5.46692e-12 4.34534e+07 -1.62174e-18 -2.44885e+06)
(-2.94014e+07 -0.0620064 3.83924e-10 4.34534e+07 -1.18666e-09 -2.44885e+06)
(-2.94014e+07 0.0495192 -7.67847e-10 4.34534e+07 1.18666e-09 -2.44885e+06)
(-2.94014e+07 -0.0680752 1.15724e-09 4.34534e+07 -1.11874e-17 -2.44885e+06)
(-2.94014e+07 0.050994 -1.16544e-09 4.34534e+07 -1.77999e-09 -2.44885e+06)
(-2.94014e+07 0.000410116 -5.46692e-12 4.34534e+07 1.18666e-09 -2.44885e+06)
(-2.94014e+07 -0.0450704 2.73346e-12 4.34534e+07 5.9333e-10 -2.44885e+06)
(-2.94014e+07 0.0150235 3.94857e-10 4.34534e+07 1.18666e-09 -2.44885e+06)
(-2.94014e+07 -0.0260564 3.8119e-10 4.34534e+07 -1.77999e-09 -2.44885e+06)
(-2.94014e+07 0.0316133 2.18677e-11 4.34534e+07 -1.38444e-17 -2.44885e+06)
(-2.94014e+07 0.0599618 3.78457e-10 4.34534e+07 1.18666e-09 -2.44885e+06)
(-2.94014e+07 -0.0624603 -3.83924e-10 4.34534e+07 6.14185e-18 -2.44885e+06)
(-2.94014e+07 0.110448 7.78781e-10 4.34534e+07 8.92604e-19 -2.44885e+06)
(-2.94014e+07 -0.0603644 1.77921e-18 4.34534e+07 -2.37332e-09 -2.44885e+06)
(-2.94014e+07 0.0605163 -7.73314e-10 4.34534e+07 1.18666e-09 -2.44885e+06)
(-2.94014e+07 -0.0557176 -1.09338e-11 4.34534e+07 2.37332e-09 -2.44885e+06)
(-2.94014e+07 -0.0134634 1.57396e-09 4.34534e+07 -1.18666e-09 -2.44885e+06)
(-2.94014e+07 -0.00612512 -3.86657e-10 4.34534e+07 -5.9333e-10 -2.44885e+06)
(-2.94014e+07 -0.0802331 2.54792e-18 4.34534e+07 1.18666e-09 -2.44885e+06)
(-2.94014e+07 0.123985 3.86657e-10 4.34534e+07 -5.9333e-10 -2.44885e+06)
(-2.94014e+07 -0.0532622 -3.94857e-10 4.34534e+07 -2.37332e-09 -2.44885e+06)
(-2.94014e+07 0.0381407 1.36673e-11 4.34534e+07 5.9333e-10 -2.44885e+06)
(-2.94014e+07 -0.0720914 -4.03058e-10 4.34534e+07 1.77999e-09 -2.44885e+06)
(-2.94014e+07 0.0596795 0 4.34534e+07 0 -2.44885e+06)
(-2.94014e+07 -0.0394029 -2.73346e-12 4.34534e+07 -5.9333e-10 -2.44885e+06)
(-2.94014e+07 -0.00147061 -2.73346e-12 4.34534e+07 -1.77999e-09 -2.44885e+06)
(-2.94014e+07 -0.0490699 -7.76048e-10 4.34534e+07 5.9333e-10 -2.44885e+06)
(-2.94014e+07 0.101337 3.83924e-10 4.34534e+07 1.18666e-09 -2.44885e+06)
(-2.94014e+07 -0.0159676 -2.73346e-12 4.34534e+07 -1.77999e-09 -2.44885e+06)
(-2.94014e+07 -0.0208356 -7.78781e-10 4.34534e+07 -3.44696e-18 -2.44885e+06)
(-2.94014e+07 0.0177471 -5.46692e-12 4.34534e+07 1.18666e-09 -2.44885e+06)
(-2.87582e+07 -0.0262177 -3.91624e-10 4.25325e+07 1.93379e-19 -2.37472e+06)
(-2.87582e+07 0.0365018 -7.81298e-10 4.25325e+07 -1.14623e-09 -2.37472e+06)
(-2.87582e+07 -0.0366942 -2.89033e-13 4.25325e+07 3.78472e-18 -2.37472e+06)
(-2.87582e+07 0.0506729 -2.63641e-12 4.25325e+07 1.71935e-09 -2.37472e+06)
(-2.87582e+07 -0.0765054 -7.90182e-10 4.25325e+07 -1.14623e-09 -2.37472e+06)
(-2.87582e+07 0.0559818 3.96608e-10 4.25325e+07 -2.08701e-17 -2.37472e+06)
(-2.87582e+07 -0.0297007 -1.22069e-11 4.25325e+07 7.99004e-18 -2.37472e+06)
(-2.87582e+07 0.0537351 8.59535e-12 4.25325e+07 6.26987e-18 -2.37472e+06)
(-2.87582e+07 0.000836511 -4.0217e-10 4.25325e+07 1.14623e-09 -2.37472e+06)
(-2.87582e+07 0.0201354 3.87037e-10 4.25325e+07 -5.73117e-10 -2.37472e+06)
(-2.87582e+07 -0.0332882 -7.22312e-12 4.25325e+07 -2.39138e-18 -2.37472e+06)
(-2.87582e+07 0.0509958 1.17653e-09 4.25325e+07 1.14623e-09 -2.37472e+06)
(-2.87582e+07 -0.107551 -7.74075e-10 4.25325e+07 1.14623e-09 -2.37472e+06)
(-2.87582e+07 0.0874197 -3.93285e-10 4.25325e+07 -1.14623e-09 -2.37472e+06)
(-2.87582e+07 -0.0854265 -1.1571e-09 4.25325e+07 7.61682e-18 -2.37472e+06)
(-2.87582e+07 0.0332657 -6.86121e-13 4.25325e+07 5.73117e-10 -2.37472e+06)
(-2.87582e+07 -0.0476631 -2.45284e-18 4.25325e+07 -1.14623e-09 -2.37472e+06)
(-2.87582e+07 -0.00657763 3.90649e-10 4.25325e+07 -5.73117e-10 -2.37472e+06)
(-2.87582e+07 0.000232847 -3.95236e-10 4.25325e+07 1.34114e-18 -2.37472e+06)
(-2.87582e+07 -0.0118774 -7.83248e-10 4.25325e+07 4.21384e-18 -2.37472e+06)
(-2.87582e+07 0.0472333 2.63641e-12 4.25325e+07 5.73117e-10 -2.37472e+06)
(-2.87582e+07 -0.0686006 -7.82273e-10 4.25325e+07 5.73117e-10 -2.37472e+06)
(-2.87582e+07 0.085903 3.91624e-10 4.25325e+07 -4.77799e-18 -2.37472e+06)
(-2.87582e+07 -0.100394 3.88013e-10 4.25325e+07 2.05134e-18 -2.37472e+06)
(-2.87582e+07 0.073615 -3.95922e-10 4.25325e+07 -1.71935e-09 -2.37472e+06)
(-2.87582e+07 -0.089431 -3.85665e-10 4.25325e+07 -5.73117e-10 -2.37472e+06)
(-2.87582e+07 0.0325984 3.79128e-10 4.25325e+07 1.14623e-09 -2.37472e+06)
(-2.87582e+07 -0.0404955 -1.55664e-09 4.25325e+07 5.73117e-10 -2.37472e+06)
(-2.87582e+07 0.0510667 -3.90649e-10 4.25325e+07 5.73117e-10 -2.37472e+06)
(-2.87582e+07 -0.0692108 8.19828e-12 4.25325e+07 -5.73117e-10 -2.37472e+06)
(-2.87582e+07 0.0999394 7.83934e-10 4.25325e+07 5.73117e-10 -2.37472e+06)
(-2.87582e+07 -0.0688446 7.75339e-10 4.25325e+07 5.73117e-10 -2.37472e+06)
(-2.87582e+07 0.0531814 8.88439e-12 4.25325e+07 1.49739e-18 -2.37472e+06)
(-2.87582e+07 -0.0354141 -4.29767e-12 4.25325e+07 -5.73117e-10 -2.37472e+06)
(-2.87582e+07 0.0253754 4.29768e-12 4.25325e+07 -5.73117e-10 -2.37472e+06)
(-2.87582e+07 -0.0398791 -1.66126e-12 4.25325e+07 7.08858e-20 -2.37472e+06)
(-2.87582e+07 0.0169443 2.63641e-12 4.25325e+07 -5.73117e-10 -2.37472e+06)
(-2.87582e+07 -0.0260241 -7.70752e-10 4.25325e+07 1.14623e-09 -2.37472e+06)
(-2.87582e+07 -0.00427608 -7.74075e-10 4.25325e+07 1.14623e-09 -2.37472e+06)
(-2.87582e+07 0.0358741 1.9503e-12 4.25325e+07 -1.14623e-09 -2.37472e+06)
(-2.87582e+07 -0.0409625 1.56455e-09 4.25325e+07 -1.14623e-09 -2.37472e+06)
(-2.87582e+07 0.014302 0 4.25325e+07 0 -2.37472e+06)
(-2.87582e+07 0.0362303 7.81298e-10 4.25325e+07 1.14623e-09 -2.37472e+06)
(-2.87582e+07 -0.00838209 -7.90925e-12 4.25325e+07 5.73117e-10 -2.37472e+06)
(-2.87582e+07 0.0135229 3.61156e-12 4.25325e+07 -1.14623e-09 -2.37472e+06)
(-2.87582e+07 -0.0119443 -3.90938e-10 4.25325e+07 5.73117e-10 -2.37472e+06)
(-2.87582e+07 0.0619285 7.75339e-10 4.25325e+07 5.73117e-10 -2.37472e+06)
(-2.87582e+07 -0.0526426 -3.61157e-12 4.25325e+07 -1.14623e-09 -2.37472e+06)
(-2.87582e+07 0.0525668 -7.77975e-10 4.25325e+07 9.32537e-18 -2.37472e+06)
(-2.87582e+07 -0.0539551 8.1983e-12 4.25325e+07 5.73117e-10 -2.37472e+06)
(-2.87582e+07 0.0553939 -1.16404e-09 4.25325e+07 1.86343e-17 -2.37472e+06)
(-2.87582e+07 -0.0109917 -1.16667e-09 4.25325e+07 -5.73117e-10 -2.37472e+06)
(-2.87582e+07 0.0043333 -3.87326e-10 4.25325e+07 5.73117e-10 -2.37472e+06)
(-2.87582e+07 0.0595322 -7.81298e-10 4.25325e+07 1.14623e-09 -2.37472e+06)
(-2.87582e+07 -0.068831 -6.9341e-12 4.25325e+07 -2.29247e-09 -2.37472e+06)
(-2.87582e+07 0.0928175 7.8462e-10 4.25325e+07 -1.14623e-09 -2.37472e+06)
(-2.87582e+07 -0.0352693 -1.5665e-09 4.25325e+07 2.29247e-09 -2.37472e+06)
(-2.87582e+07 0.0114345 3.83715e-10 4.25325e+07 5.73117e-10 -2.37472e+06)
(-2.87582e+07 -0.0356946 -1.55566e-09 4.25325e+07 -1.14623e-09 -2.37472e+06)
(-2.87582e+07 0.0537778 7.81298e-10 4.25325e+07 -1.10351e-17 -2.37472e+06)
(-2.87582e+07 -0.0482333 -7.79637e-10 4.25325e+07 1.14623e-09 -2.37472e+06)
(-2.87582e+07 0.0478535 1.16599e-09 4.25325e+07 -2.55042e-17 -2.37472e+06)
(-2.87582e+07 -0.0795221 -1.16404e-09 4.25325e+07 -1.14623e-09 -2.37472e+06)
(-2.87582e+07 0.030328 3.87037e-10 4.25325e+07 -5.73117e-10 -2.37472e+06)
(-2.87582e+07 -0.0876693 3.93285e-10 4.25325e+07 1.14623e-09 -2.37472e+06)
(-2.87582e+07 0.101014 1.55595e-09 4.25325e+07 -3.9731e-17 -2.37472e+06)
(-2.87582e+07 -0.117265 -3.8469e-10 4.25325e+07 -1.04425e-17 -2.37472e+06)
(-2.87582e+07 0.114883 -6.93409e-12 4.25325e+07 -1.61172e-19 -2.37472e+06)
(-2.87582e+07 -0.0838206 -7.72703e-10 4.25325e+07 1.46313e-17 -2.37472e+06)
(-2.87582e+07 0.0915862 -1.16834e-09 4.25325e+07 5.73117e-10 -2.37472e+06)
(-2.87582e+07 -0.0445687 -3.61156e-12 4.25325e+07 -1.14623e-09 -2.37472e+06)
(-2.87582e+07 0.0157002 -3.94261e-10 4.25325e+07 -1.71935e-09 -2.37472e+06)
(-2.87582e+07 -0.0121967 -7.74653e-10 4.25325e+07 1.14623e-09 -2.37472e+06)
(-2.87582e+07 -0.00975798 7.70066e-10 4.25325e+07 1.71935e-09 -2.37472e+06)
(-2.87582e+07 0.00238406 3.94261e-10 4.25325e+07 -5.73117e-10 -2.37472e+06)
(-2.87582e+07 -0.0173359 3.61157e-12 4.25325e+07 1.42052e-18 -2.37472e+06)
(-2.87582e+07 0.00412737 9.75156e-13 4.25325e+07 -5.73117e-10 -2.37472e+06)
(-2.87582e+07 0.0415123 -2.63641e-12 4.25325e+07 -1.71935e-09 -2.37472e+06)
(-2.87582e+07 -0.0338258 3.91335e-10 4.25325e+07 2.16423e-18 -2.37472e+06)
(-2.87582e+07 0.0459868 7.77975e-10 4.25325e+07 1.14623e-09 -2.37472e+06)
(-2.87582e+07 -0.0397299 3.88013e-10 4.25325e+07 -2.06002e-18 -2.37472e+06)
(-2.87582e+07 0.0368455 -1.16765e-09 4.25325e+07 9.6567e-18 -2.37472e+06)
(-2.87582e+07 -0.0396453 3.83426e-10 4.25325e+07 5.73117e-10 -2.37472e+06)
(-2.87582e+07 0.0303718 5.56186e-12 4.25325e+07 -1.60786e-18 -2.37472e+06)
(-2.87582e+07 -0.00279612 2.63641e-12 4.25325e+07 -5.73117e-10 -2.37472e+06)
(-2.87582e+07 -0.0185005 -3.91624e-10 4.25325e+07 6.69785e-19 -2.37472e+06)
(-2.87582e+07 0.0164607 -9.7515e-13 4.25325e+07 5.73117e-10 -2.37472e+06)
(-2.87582e+07 -0.0118949 3.77467e-10 4.25325e+07 -1.14623e-09 -2.37472e+06)
(-2.87582e+07 0.0127745 1.58185e-11 4.25325e+07 -7.60675e-18 -2.37472e+06)
(-2.87582e+07 0.0359435 3.80103e-10 4.25325e+07 1.71935e-09 -2.37472e+06)
(-2.87582e+07 -0.0359304 -3.90649e-10 4.25325e+07 -5.73117e-10 -2.37472e+06)
(-2.87582e+07 0.0652718 1.56191e-09 4.25325e+07 -5.73117e-10 -2.37472e+06)
(-2.87582e+07 -0.0421444 -3.91624e-10 4.25325e+07 1.01604e-18 -2.37472e+06)
(-2.87582e+07 0.0393297 -7.70752e-10 4.25325e+07 1.14623e-09 -2.37472e+06)
(-2.87582e+07 -0.0306774 3.75806e-10 4.25325e+07 -1.14623e-09 -2.37472e+06)
(-2.87582e+07 -0.00333583 7.87257e-10 4.25325e+07 -5.73117e-10 -2.37472e+06)
(-2.87582e+07 0.00639798 -4.29768e-12 4.25325e+07 1.71935e-09 -2.37472e+06)
(-2.87582e+07 -0.0477911 0 4.25325e+07 0 -2.37472e+06)
(-2.87582e+07 0.0639663 1.56288e-09 4.25325e+07 -1.02719e-17 -2.37472e+06)
(-2.87582e+07 -0.042447 -4.29768e-12 4.25325e+07 -1.71935e-09 -2.37472e+06)
(-2.87582e+07 0.0341297 -7.64793e-10 4.25325e+07 5.73117e-10 -2.37472e+06)
(-2.87582e+07 -0.0444015 3.82054e-10 4.25325e+07 1.71935e-09 -2.37472e+06)
(-2.87582e+07 0.0355219 -3.88988e-10 4.25325e+07 -5.73117e-10 -2.37472e+06)
(-2.87582e+07 -0.0278377 -3.94261e-10 4.25325e+07 -5.73117e-10 -2.37472e+06)
(-2.87582e+07 0.0137261 -3.88988e-10 4.25325e+07 -5.73117e-10 -2.37472e+06)
(-2.87582e+07 -0.0311408 -7.76025e-10 4.25325e+07 -2.64136e-18 -2.37472e+06)
(-2.87582e+07 0.0496844 3.88013e-10 4.25325e+07 -4.79972e-18 -2.37472e+06)
(-2.87582e+07 -0.0140715 0 4.25325e+07 0 -2.37472e+06)
(-2.87582e+07 -0.00372644 -7.76025e-10 4.25325e+07 -1.90084e-18 -2.37472e+06)
(-2.87582e+07 0.0111529 0 4.25325e+07 0 -2.37472e+06)
(-2.78427e+07 -0.0145186 9.77514e-13 4.15942e+07 -5.53311e-10 -2.31095e+06)
(-2.78427e+07 0.00841421 5.02682e-12 4.15942e+07 -2.71595e-18 -2.31095e+06)
(-2.78427e+07 -0.0222309 -1.52967e-09 4.15942e+07 -3.68696e-18 -2.31095e+06)
(-2.78427e+07 0.0218922 -7.60016e-10 4.15942e+07 5.53311e-10 -2.31095e+06)
(-2.78427e+07 -0.000897727 1.14477e-09 4.15942e+07 -1.36704e-18 -2.31095e+06)
(-2.78427e+07 0.0272528 -7.55548e-10 4.15942e+07 -1.10662e-09 -2.31095e+06)
(-2.78427e+07 -0.0193915 -3.87269e-10 4.15942e+07 1.56145e-18 -2.31095e+06)
(-2.78427e+07 0.00371919 -7.55548e-10 4.15942e+07 1.10662e-09 -2.31095e+06)
(-2.78427e+07 -0.0172033 3.79729e-10 4.15942e+07 5.53311e-10 -2.31095e+06)
(-2.78427e+07 0.0163534 7.76074e-10 4.15942e+07 -1.12616e-19 -2.31095e+06)
(-2.78427e+07 -0.0161866 -5.58521e-12 4.15942e+07 -1.65993e-09 -2.31095e+06)
(-2.78427e+07 0.0243654 8.09862e-12 4.15942e+07 -1.10662e-09 -2.31095e+06)
(-2.78427e+07 -0.022827 7.60575e-10 4.15942e+07 2.21324e-09 -2.31095e+06)
(-2.78427e+07 0.0107205 -7.54024e-12 4.15942e+07 5.53311e-10 -2.31095e+06)
(-2.78427e+07 -0.0382018 3.49093e-12 4.15942e+07 -1.10662e-09 -2.31095e+06)
(-2.78427e+07 0.0144715 7.65601e-10 4.15942e+07 -4.1502e-18 -2.31095e+06)
(-2.78427e+07 -0.0117644 3.78751e-10 4.15942e+07 -2.14881e-18 -2.31095e+06)
(-2.78427e+07 0.00507767 7.54024e-12 4.15942e+07 5.53311e-10 -2.31095e+06)
(-2.78427e+07 -0.00617714 1.95503e-12 4.15942e+07 1.10662e-09 -2.31095e+06)
(-2.78427e+07 -0.0236597 1.53707e-09 4.15942e+07 -1.10662e-09 -2.31095e+06)
(-2.78427e+07 0.00838002 1.00536e-11 4.15942e+07 5.45057e-18 -2.31095e+06)
(-2.78427e+07 -0.0264953 3.77215e-10 4.15942e+07 -7.78396e-18 -2.31095e+06)
(-2.78427e+07 0.0198288 1.15538e-09 4.15942e+07 -5.53311e-10 -2.31095e+06)
(-2.78427e+07 -0.0349511 3.81265e-10 4.15942e+07 5.53311e-10 -2.31095e+06)
(-2.78427e+07 0.0261507 -3.83778e-10 4.15942e+07 2.1963e-18 -2.31095e+06)
(-2.78427e+07 -0.0211948 -7.57084e-10 4.15942e+07 -8.85374e-18 -2.31095e+06)
(-2.78427e+07 0.0231561 6.00434e-12 4.15942e+07 5.53311e-10 -2.31095e+06)
(-2.78427e+07 -0.0312895 1.95501e-12 4.15942e+07 2.79972e-18 -2.31095e+06)
(-2.78427e+07 0.0196325 3.78751e-10 4.15942e+07 -2.21324e-09 -2.31095e+06)
(-2.78427e+07 -0.0261915 3.85872e-10 4.15942e+07 -5.53311e-10 -2.31095e+06)
(-2.78427e+07 0.0133804 -5.02683e-12 4.15942e+07 1.10662e-09 -2.31095e+06)
(-2.78427e+07 -0.0245173 -6.98185e-12 4.15942e+07 -4.04141e-18 -2.31095e+06)
(-2.78427e+07 0.0236308 3.82801e-10 4.15942e+07 5.53311e-10 -2.31095e+06)
(-2.78427e+07 -0.0195707 -6.00433e-12 4.15942e+07 5.53311e-10 -2.31095e+06)
(-2.78427e+07 0.0119464 -7.66579e-10 4.15942e+07 -5.53311e-10 -2.31095e+06)
(-2.78427e+07 -0.00876202 3.82801e-10 4.15942e+07 -5.53311e-10 -2.31095e+06)
(-2.78427e+07 0.00855974 0 4.15942e+07 0 -2.31095e+06)
(-2.78427e+07 -0.00187195 7.67556e-10 4.15942e+07 -4.14797e-18 -2.31095e+06)
(-2.78427e+07 -0.00866571 7.60575e-10 4.15942e+07 -7.85793e-18 -2.31095e+06)
(-2.78427e+07 -0.00117654 -1.20087e-11 4.15942e+07 -1.10662e-09 -2.31095e+06)
(-2.78427e+07 0.0104848 7.70628e-10 4.15942e+07 -1.15507e-17 -2.31095e+06)
(-2.78427e+07 0.00730435 -5.02682e-12 4.15942e+07 1.10662e-09 -2.31095e+06)
(-2.78427e+07 -0.0107283 5.02682e-12 4.15942e+07 1.10662e-09 -2.31095e+06)
(-2.78427e+07 -0.000146352 7.57503e-10 4.15942e+07 -2.27363e-17 -2.31095e+06)
(-2.78427e+07 0.0231076 -3.74702e-10 4.15942e+07 5.53311e-10 -2.31095e+06)
(-2.78427e+07 -0.0112147 -4.6077e-12 4.15942e+07 7.39076e-18 -2.31095e+06)
(-2.78427e+07 0.00766308 7.73142e-10 4.15942e+07 -5.53311e-10 -2.31095e+06)
(-2.78427e+07 -0.0100266 -3.85314e-10 4.15942e+07 1.10662e-09 -2.31095e+06)
(-2.78427e+07 0.0324673 -3.0718e-12 4.15942e+07 -2.21324e-09 -2.31095e+06)
(-2.78427e+07 -0.0072403 -3.76657e-10 4.15942e+07 -5.53311e-10 -2.31095e+06)
(-2.78427e+07 0.0117902 3.76238e-10 4.15942e+07 1.65993e-09 -2.31095e+06)
(-2.78427e+07 -0.00124078 3.86292e-10 4.15942e+07 5.53311e-10 -2.31095e+06)
(-2.78427e+07 -0.00328401 4.46844e-12 4.15942e+07 5.53311e-10 -2.31095e+06)
(-2.78427e+07 0.0213602 -2.51341e-12 4.15942e+07 -5.53311e-10 -2.31095e+06)
(-2.78427e+07 -0.00792449 7.64065e-10 4.15942e+07 -1.10662e-09 -2.31095e+06)
(-2.78427e+07 0.00943135 -7.48007e-10 4.15942e+07 1.65993e-09 -2.31095e+06)
(-2.78427e+07 -0.0199843 -3.63019e-12 4.15942e+07 5.53311e-10 -2.31095e+06)
(-2.78427e+07 0.0350728 7.74119e-10 4.15942e+07 -1.10662e-09 -2.31095e+06)
(-2.78427e+07 -0.0107407 -3.87828e-10 4.15942e+07 -5.53311e-10 -2.31095e+06)
(-2.78427e+07 0.000932061 1.00536e-11 4.15942e+07 -1.89499e-17 -2.31095e+06)
(-2.78427e+07 -0.0340856 3.77215e-10 4.15942e+07 -2.15215e-17 -2.31095e+06)
(-2.78427e+07 0.0129383 5.58389e-13 4.15942e+07 -5.53311e-10 -2.31095e+06)
(-2.78427e+07 -0.0175464 3.81265e-10 4.15942e+07 5.53311e-10 -2.31095e+06)
(-2.78427e+07 0.034453 9.77517e-13 4.15942e+07 -5.53311e-10 -2.31095e+06)
(-2.78427e+07 -0.037064 -2.51341e-12 4.15942e+07 -1.65993e-09 -2.31095e+06)
(-2.78427e+07 0.0215816 7.68673e-10 4.15942e+07 1.10662e-09 -2.31095e+06)
(-2.78427e+07 -0.035642 -5.58521e-12 4.15942e+07 1.65993e-09 -2.31095e+06)
(-2.78427e+07 0.0346871 7.69092e-10 4.15942e+07 -5.57716e-18 -2.31095e+06)
(-2.78427e+07 -0.0393904 -7.65601e-10 4.15942e+07 6.38612e-18 -2.31095e+06)
(-2.78427e+07 0.0159569 7.69092e-10 4.15942e+07 -1.57327e-17 -2.31095e+06)
(-2.78427e+07 -0.0188796 3.82242e-10 4.15942e+07 -8.67031e-18 -2.31095e+06)
(-2.78427e+07 0.0179493 -7.59039e-10 4.15942e+07 6.3085e-18 -2.31095e+06)
(-2.78427e+07 -0.0039661 -7.61133e-10 4.15942e+07 -5.53311e-10 -2.31095e+06)
(-2.78427e+07 0.000741532 7.65601e-10 4.15942e+07 -1.10662e-09 -2.31095e+06)
(-2.78427e+07 0.00339958 3.80287e-10 4.15942e+07 -7.70507e-19 -2.31095e+06)
(-2.78427e+07 0.00945896 -3.87269e-10 4.15942e+07 3.77443e-18 -2.31095e+06)
(-2.78427e+07 -0.00962208 3.80287e-10 4.15942e+07 -3.3087e-18 -2.31095e+06)
(-2.78427e+07 -0.0016255 -7.67556e-10 4.15942e+07 6.34316e-18 -2.31095e+06)
(-2.78427e+07 -0.0127343 -7.65601e-10 4.15942e+07 -1.10662e-09 -2.31095e+06)
(-2.78427e+07 0.0179681 3.0718e-12 4.15942e+07 1.59708e-17 -2.31095e+06)
(-2.78427e+07 -0.0117069 -2.51341e-12 4.15942e+07 1.65993e-09 -2.31095e+06)
(-2.78427e+07 0.0177744 3.49092e-12 4.15942e+07 1.10662e-09 -2.31095e+06)
(-2.78427e+07 -0.00717941 -5.58521e-12 4.15942e+07 -1.65993e-09 -2.31095e+06)
(-2.78427e+07 0.00334564 3.88386e-10 4.15942e+07 -1.10662e-09 -2.31095e+06)
(-2.78427e+07 -0.00505702 -2.51341e-12 4.15942e+07 1.65993e-09 -2.31095e+06)
(-2.78427e+07 0.0081375 -7.66579e-10 4.15942e+07 5.53311e-10 -2.31095e+06)
(-2.78427e+07 0.0102652 -7.64065e-10 4.15942e+07 1.86404e-18 -2.31095e+06)
(-2.78427e+07 0.00430625 3.76238e-10 4.15942e+07 -1.65993e-09 -2.31095e+06)
(-2.78427e+07 -0.00572918 -7.52476e-10 4.15942e+07 8.34935e-18 -2.31095e+06)
(-2.78427e+07 0.00797754 3.76238e-10 4.15942e+07 1.65993e-09 -2.31095e+06)
(-2.78427e+07 -0.00644829 3.76238e-10 4.15942e+07 -1.65993e-09 -2.31095e+06)
(-2.78427e+07 0.0136711 8.09863e-12 4.15942e+07 -1.01509e-17 -2.31095e+06)
(-2.78427e+07 -0.0159708 -7.74119e-10 4.15942e+07 1.10662e-09 -2.31095e+06)
(-2.78427e+07 0.0121187 5.02683e-12 4.15942e+07 -5.81645e-18 -2.31095e+06)
(-2.78427e+07 -0.00305873 7.59039e-10 4.15942e+07 6.16167e-19 -2.31095e+06)
(-2.78427e+07 0.00401155 -7.58061e-10 4.15942e+07 -5.53311e-10 -2.31095e+06)
(-2.78427e+07 0.0126117 -3.84756e-10 4.15942e+07 5.53311e-10 -2.31095e+06)
(-2.78427e+07 -0.00905427 3.73725e-10 4.15942e+07 -1.10662e-09 -2.31095e+06)
(-2.78427e+07 0.000348978 3.85872e-10 4.15942e+07 -5.53311e-10 -2.31095e+06)
(-2.78427e+07 -0.0232476 3.7526e-10 4.15942e+07 1.10662e-09 -2.31095e+06)
(-2.78427e+07 0.0208815 -7.60575e-10 4.15942e+07 3.02261e-18 -2.31095e+06)
(-2.78427e+07 -0.0119912 7.65601e-10 4.15942e+07 1.10662e-09 -2.31095e+06)
(-2.78427e+07 0.00820019 3.82242e-10 4.15942e+07 1.10662e-09 -2.31095e+06)
(-2.78427e+07 -0.0119491 3.84756e-10 4.15942e+07 -5.53311e-10 -2.31095e+06)
(-2.78427e+07 0.0216702 -7.64065e-10 4.15942e+07 -1.10662e-09 -2.31095e+06)
(-2.78427e+07 -0.0102572 2.51341e-12 4.15942e+07 -5.53311e-10 -2.31095e+06)
(-2.78427e+07 -0.00321072 -7.67556e-10 4.15942e+07 1.34831e-18 -2.31095e+06)
(-2.78427e+07 -0.00856208 0 4.15942e+07 0 -2.31095e+06)
(-2.78427e+07 0.0103542 0 4.15942e+07 0 -2.31095e+06)
(-2.78427e+07 0.00193137 0 4.15942e+07 0 -2.31095e+06)
(-2.71155e+07 -0.00975681 -3.8195e-10 4.07171e+07 -1.39185e-18 -2.24744e+06)
(-2.71155e+07 0.00313654 4.82549e-12 4.07171e+07 1.06951e-09 -2.24744e+06)
(-2.71155e+07 -0.0142331 3.77124e-10 4.07171e+07 1.06951e-09 -2.24744e+06)
(-2.71155e+07 0.0153779 -2.85689e-12 4.07171e+07 -2.13902e-09 -2.24744e+06)
(-2.71155e+07 0.00689328 7.57994e-10 4.07171e+07 -1.06951e-09 -2.24744e+06)
(-2.71155e+07 0.0174968 -7.57106e-10 4.07171e+07 2.13902e-09 -2.24744e+06)
(-2.71155e+07 -0.0150939 -2.85689e-12 4.07171e+07 -9.30814e-19 -2.24744e+06)
(-2.71155e+07 -0.00571188 7.61931e-10 4.07171e+07 -1.06951e-09 -2.24744e+06)
(-2.71155e+07 -0.019016 -1.16196e-11 4.07171e+07 -1.06951e-09 -2.24744e+06)
(-2.71155e+07 0.010312 3.78013e-10 4.07171e+07 5.34285e-18 -2.24744e+06)
(-2.71155e+07 -0.0104531 1.50259e-09 4.07171e+07 1.06951e-09 -2.24744e+06)
(-2.71155e+07 0.0162115 -7.50311e-10 4.07171e+07 -8.03668e-19 -2.24744e+06)
(-2.71155e+07 -0.00675359 4.82549e-12 4.07171e+07 1.06951e-09 -2.24744e+06)
(-2.71155e+07 0.0012934 -9.65098e-12 4.07171e+07 9.11259e-18 -2.24744e+06)
(-2.71155e+07 -0.0215802 -3.77124e-10 4.07171e+07 -1.06951e-09 -2.24744e+06)
(-2.71155e+07 0.00914515 0 4.07171e+07 0 -2.24744e+06)
(-2.71155e+07 -0.00357662 -3.8195e-10 4.07171e+07 4.18099e-19 -2.24744e+06)
(-2.71155e+07 0.00462014 0 4.07171e+07 0 -2.24744e+06)
(-2.71155e+07 -0.00668555 7.40661e-10 4.07171e+07 -2.13902e-09 -2.24744e+06)
(-2.71155e+07 -0.0208212 7.56025e-10 4.07171e+07 -1.1257e-17 -2.24744e+06)
(-2.71155e+07 -0.00107945 -7.66757e-10 4.07171e+07 2.13902e-09 -2.24744e+06)
(-2.71155e+07 -0.0175384 -1.16196e-11 4.07171e+07 -1.06951e-09 -2.24744e+06)
(-2.71155e+07 0.00612946 -7.54249e-10 4.07171e+07 1.1383e-17 -2.24744e+06)
(-2.71155e+07 -0.0179939 -3.8195e-10 4.07171e+07 2.13902e-09 -2.24744e+06)
(-2.71155e+07 0.0144409 3.72299e-10 4.07171e+07 2.43474e-18 -2.24744e+06)
(-2.71155e+07 -0.00709865 3.79981e-10 4.07171e+07 -1.06951e-09 -2.24744e+06)
(-2.71155e+07 0.0179152 3.75156e-10 4.07171e+07 -1.62534e-18 -2.24744e+06)
(-2.71155e+07 -0.020439 7.50311e-10 4.07171e+07 -1.73539e-18 -2.24744e+06)
(-2.71155e+07 0.0100959 -3.8195e-10 4.07171e+07 5.04239e-18 -2.24744e+06)
(-2.71155e+07 -0.0165794 6.7941e-12 4.07171e+07 1.08751e-18 -2.24744e+06)
(-2.71155e+07 -0.00275962 4.82549e-12 4.07171e+07 1.06951e-09 -2.24744e+06)
(-2.71155e+07 -0.0147718 -2.85689e-12 4.07171e+07 2.52567e-18 -2.24744e+06)
(-2.71155e+07 0.0105968 9.65098e-12 4.07171e+07 -1.03528e-17 -2.24744e+06)
(-2.71155e+07 -0.0112619 -3.79981e-10 4.07171e+07 1.06951e-09 -2.24744e+06)
(-2.71155e+07 0.00654742 3.77124e-10 4.07171e+07 -1.06951e-09 -2.24744e+06)
(-2.71155e+07 -0.00136617 4.82549e-12 4.07171e+07 -1.06951e-09 -2.24744e+06)
(-2.71155e+07 0.0066991 -4.82549e-12 4.07171e+07 -1.06951e-09 -2.24744e+06)
(-2.71155e+07 0.00140559 2.85689e-12 4.07171e+07 -4.01878e-18 -2.24744e+06)
(-2.71155e+07 -0.00500639 -7.57106e-10 4.07171e+07 2.13902e-09 -2.24744e+06)
(-2.71155e+07 -0.00443449 -7.68238e-12 4.07171e+07 -1.06951e-09 -2.24744e+06)
(-2.71155e+07 0.0123888 -7.42629e-10 4.07171e+07 -1.06951e-09 -2.24744e+06)
(-2.71155e+07 0.00381158 -4.82549e-12 4.07171e+07 1.06951e-09 -2.24744e+06)
(-2.71155e+07 -0.0129091 0 4.07171e+07 0 -2.24744e+06)
(-2.71155e+07 0.00103927 7.55137e-10 4.07171e+07 1.06951e-09 -2.24744e+06)
(-2.71155e+07 0.0169674 -2.85689e-12 4.07171e+07 2.45155e-18 -2.24744e+06)
(-2.71155e+07 -0.00705927 1.8874e-09 4.07171e+07 -1.06951e-09 -2.24744e+06)
(-2.71155e+07 0.000394181 4.82549e-12 4.07171e+07 1.06951e-09 -2.24744e+06)
(-2.71155e+07 0.000811208 7.47455e-10 4.07171e+07 7.16232e-19 -2.24744e+06)
(-2.71155e+07 0.0224416 7.59962e-10 4.07171e+07 -5.05639e-18 -2.24744e+06)
(-2.71155e+07 0.00188795 -7.53168e-10 4.07171e+07 5.45713e-18 -2.24744e+06)
(-2.71155e+07 0.00473907 3.79981e-10 4.07171e+07 -1.06951e-09 -2.24744e+06)
(-2.71155e+07 -0.00055572 3.75156e-10 4.07171e+07 -6.13107e-18 -2.24744e+06)
(-2.71155e+07 -0.00330916 -1.9686e-12 4.07171e+07 1.06951e-09 -2.24744e+06)
(-2.71155e+07 0.0091658 7.47455e-10 4.07171e+07 -5.85535e-19 -2.24744e+06)
(-2.71155e+07 -0.000305273 3.79981e-10 4.07171e+07 -1.06951e-09 -2.24744e+06)
(-2.71155e+07 -0.00183206 0 4.07171e+07 0 -2.24744e+06)
(-2.71155e+07 -0.0124242 1.50062e-09 4.07171e+07 -1.29392e-17 -2.24744e+06)
(-2.71155e+07 0.0285476 3.79981e-10 4.07171e+07 1.06951e-09 -2.24744e+06)
(-2.71155e+07 -0.00414271 7.47455e-10 4.07171e+07 3.0472e-18 -2.24744e+06)