/*--------------------------------*- C++ -*----------------------------------*\
| =========                 |                                                 |
| \\      /  F ield         | OpenFOAM: The Open Source CFD Toolbox           |
|  \\    /   O peration     | Version:  2312                                  |
|   \\  /    A nd           | Website:  www.openfoam.com                      |
|    \\/     M anipulation  |                                                 |
\*---------------------------------------------------------------------------*/
FoamFile
{
    version     2.0;
    format      ascii;
    arch        "LSB;label=32;scalar=64";
    class       volVectorField;
    location    "50";
    object      D;
}
// * * * * * * * * * * * * * * * * * * * * * * * * * * * * * * * * * * * * * //

dimensions      [0 1 0 0 0 0 0];

internalField   nonuniform List<vector> 
12870
(
(1.61397 0.0115239 0)
(1.61364 0.0345694 0)
(1.61298 0.0576078 0)
(1.61199 0.0806344 0)
(1.61068 0.103645 0)
(1.60903 0.126634 0)
(1.60706 0.149597 0)
(1.60476 0.17253 0)
(1.60213 0.195427 0)
(1.59918 0.218285 0)
(1.5959 0.241098 0)
(1.59229 0.263862 0)
(1.58836 0.286572 0)
(1.58411 0.309224 0)
(1.57953 0.331813 0)
(1.57463 0.354334 0)
(1.56941 0.376783 0)
(1.56387 0.399155 0)
(1.55801 0.421446 0)
(1.55184 0.44365 0)
(1.54534 0.465764 0)
(1.53854 0.487784 0)
(1.53141 0.509703 0)
(1.52398 0.531519 0)
(1.51623 0.553227 0)
(1.50818 0.574821 0)
(1.49982 0.596299 0)
(1.49115 0.617655 0)
(1.48218 0.638884 0)
(1.4729 0.659984 0)
(1.46333 0.680949 0)
(1.45346 0.701775 0)
(1.44329 0.722458 0)
(1.43282 0.742994 0)
(1.42207 0.763378 0)
(1.41102 0.783607 0)
(1.39969 0.803676 0)
(1.38807 0.82358 0)
(1.37617 0.843317 0)
(1.36399 0.862882 0)
(1.35153 0.882271 0)
(1.33879 0.901481 0)
(1.32578 0.920506 0)
(1.3125 0.939344 0)
(1.29895 0.95799 0)
(1.28514 0.97644 0)
(1.27107 0.994692 0)
(1.25673 1.01274 0)
(1.24215 1.03058 0)
(1.2273 1.04822 0)
(1.21221 1.06563 0)
(1.19687 1.08283 0)
(1.18128 1.09981 0)
(1.16546 1.11657 0)
(1.1494 1.1331 0)
(1.1331 1.1494 0)
(1.11657 1.16546 0)
(1.09981 1.18128 0)
(1.08283 1.19687 0)
(1.06563 1.21221 0)
(1.04822 1.2273 0)
(1.03058 1.24215 0)
(1.01274 1.25673 0)
(0.994692 1.27107 0)
(0.97644 1.28514 0)
(0.95799 1.29895 0)
(0.939344 1.3125 0)
(0.920506 1.32578 0)
(0.901481 1.33879 0)
(0.882272 1.35153 0)
(0.862882 1.36399 0)
(0.843317 1.37617 0)
(0.82358 1.38807 0)
(0.803676 1.39969 0)
(0.783607 1.41102 0)
(0.763378 1.42207 0)
(0.742994 1.43282 0)
(0.722458 1.44329 0)
(0.701775 1.45346 0)
(0.680949 1.46333 0)
(0.659984 1.4729 0)
(0.638884 1.48218 0)
(0.617655 1.49115 0)
(0.596299 1.49982 0)
(0.574821 1.50818 0)
(0.553227 1.51623 0)
(0.531519 1.52398 0)
(0.509703 1.53141 0)
(0.487784 1.53854 0)
(0.465764 1.54534 0)
(0.44365 1.55184 0)
(0.421446 1.55801 0)
(0.399155 1.56387 0)
(0.376783 1.56941 0)
(0.354334 1.57463 0)
(0.331813 1.57953 0)
(0.309224 1.58411 0)
(0.286572 1.58836 0)
(0.263862 1.59229 0)
(0.241098 1.5959 0)
(0.218285 1.59918 0)
(0.195427 1.60213 0)
(0.17253 1.60476 0)
(0.149597 1.60706 0)
(0.126634 1.60903 0)
(0.103645 1.61068 0)
(0.0806344 1.61199 0)
(0.0576078 1.61298 0)
(0.0345694 1.61364 0)
(0.0115239 1.61397 0)
(1.60206 0.0114389 0)
(1.60173 0.0343143 0)
(1.60108 0.0571827 0)
(1.6001 0.0800395 0)
(1.59879 0.10288 0)
(1.59716 0.125699 0)
(1.5952 0.148493 0)
(1.59292 0.171257 0)
(1.59031 0.193985 0)
(1.58738 0.216674 0)
(1.58412 0.239319 0)
(1.58055 0.261915 0)
(1.57664 0.284458 0)
(1.57242 0.306943 0)
(1.56788 0.329365 0)
(1.56302 0.35172 0)
(1.55783 0.374003 0)
(1.55233 0.39621 0)
(1.54652 0.418336 0)
(1.54039 0.440377 0)
(1.53394 0.462328 0)
(1.52718 0.484185 0)
(1.52011 0.505943 0)
(1.51273 0.527597 0)
(1.50505 0.549145 0)
(1.49705 0.57058 0)
(1.48875 0.591899 0)
(1.48015 0.613097 0)
(1.47124 0.63417 0)
(1.46204 0.655114 0)
(1.45253 0.675925 0)
(1.44273 0.696597 0)
(1.43264 0.717128 0)
(1.42225 0.737512 0)
(1.41158 0.757746 0)
(1.40061 0.777825 0)
(1.38936 0.797746 0)
(1.37783 0.817504 0)
(1.36602 0.837095 0)
(1.35392 0.856516 0)
(1.34155 0.875762 0)
(1.32891 0.894829 0)
(1.316 0.913714 0)
(1.30282 0.932413 0)
(1.28937 0.950921 0)
(1.27566 0.969236 0)
(1.26169 0.987353 0)
(1.24746 1.00527 0)
(1.23298 1.02298 0)
(1.21825 1.04048 0)
(1.20326 1.05777 0)
(1.18804 1.07484 0)
(1.17257 1.0917 0)
(1.15686 1.10833 0)
(1.14092 1.12474 0)
(1.12474 1.14092 0)
(1.10833 1.15686 0)
(1.0917 1.17257 0)
(1.07484 1.18804 0)
(1.05777 1.20326 0)
(1.04048 1.21825 0)
(1.02298 1.23298 0)
(1.00527 1.24746 0)
(0.987353 1.26169 0)
(0.969236 1.27566 0)
(0.950921 1.28937 0)
(0.932413 1.30282 0)
(0.913714 1.316 0)
(0.894829 1.32891 0)
(0.875762 1.34155 0)
(0.856516 1.35392 0)
(0.837095 1.36602 0)
(0.817504 1.37783 0)
(0.797746 1.38936 0)
(0.777825 1.40061 0)
(0.757746 1.41158 0)
(0.737512 1.42225 0)
(0.717128 1.43264 0)
(0.696597 1.44273 0)
(0.675925 1.45253 0)
(0.655114 1.46204 0)
(0.63417 1.47124 0)
(0.613097 1.48015 0)
(0.591899 1.48875 0)
(0.57058 1.49705 0)
(0.549145 1.50505 0)
(0.527597 1.51273 0)
(0.505943 1.52011 0)
(0.484185 1.52718 0)
(0.462328 1.53394 0)
(0.440377 1.54039 0)
(0.418336 1.54652 0)
(0.39621 1.55233 0)
(0.374003 1.55783 0)
(0.35172 1.56302 0)
(0.329365 1.56788 0)
(0.306943 1.57242 0)
(0.284458 1.57664 0)
(0.261915 1.58055 0)
(0.239319 1.58412 0)
(0.216674 1.58738 0)
(0.193985 1.59031 0)
(0.171257 1.59292 0)
(0.148493 1.5952 0)
(0.125699 1.59716 0)
(0.10288 1.59879 0)
(0.0800395 1.6001 0)
(0.0571827 1.60108 0)
(0.0343143 1.60173 0)
(0.0114389 1.60206 0)
(1.59062 0.0113572 0)
(1.5903 0.0340693 0)
(1.58965 0.0567744 0)
(1.58868 0.079468 0)
(1.58738 0.102145 0)
(1.58576 0.124802 0)
(1.58381 0.147433 0)
(1.58155 0.170034 0)
(1.57896 0.1926 0)
(1.57605 0.215127 0)
(1.57281 0.237611 0)
(1.56926 0.260045 0)
(1.56539 0.282427 0)
(1.5612 0.304751 0)
(1.55668 0.327013 0)
(1.55186 0.349209 0)
(1.54671 0.371333 0)
(1.54125 0.393381 0)
(1.53548 0.415349 0)
(1.52939 0.437233 0)
(1.52299 0.459027 0)
(1.51628 0.480728 0)
(1.50926 0.50233 0)
(1.50193 0.523831 0)
(1.4943 0.545224 0)
(1.48636 0.566506 0)
(1.47812 0.587673 0)
(1.46958 0.60872 0)
(1.46074 0.629643 0)
(1.4516 0.650437 0)
(1.44216 0.671099 0)
(1.43243 0.691624 0)
(1.42241 0.712008 0)
(1.4121 0.732246 0)
(1.4015 0.752336 0)
(1.39061 0.772272 0)
(1.37944 0.79205 0)
(1.36799 0.811667 0)
(1.35626 0.831119 0)
(1.34426 0.850401 0)
(1.33198 0.869509 0)
(1.31942 0.88844 0)
(1.3066 0.907191 0)
(1.29352 0.925756 0)
(1.28016 0.944132 0)
(1.26655 0.962316 0)
(1.25268 0.980303 0)
(1.23856 0.998091 0)
(1.22418 1.01568 0)
(1.20955 1.03305 0)
(1.19467 1.05022 0)
(1.17956 1.06717 0)
(1.1642 1.08391 0)
(1.1486 1.10042 0)
(1.13277 1.11671 0)
(1.11671 1.13277 0)
(1.10042 1.1486 0)
(1.08391 1.1642 0)
(1.06717 1.17956 0)
(1.05022 1.19467 0)
(1.03305 1.20955 0)
(1.01568 1.22418 0)
(0.998091 1.23856 0)
(0.980303 1.25268 0)
(0.962316 1.26655 0)
(0.944132 1.28016 0)
(0.925756 1.29352 0)
(0.907191 1.3066 0)
(0.88844 1.31942 0)
(0.869509 1.33198 0)
(0.850401 1.34426 0)
(0.831119 1.35626 0)
(0.811667 1.36799 0)
(0.79205 1.37944 0)
(0.772272 1.39061 0)
(0.752336 1.4015 0)
(0.732246 1.4121 0)
(0.712008 1.42241 0)
(0.691624 1.43243 0)
(0.671099 1.44216 0)
(0.650437 1.4516 0)
(0.629643 1.46074 0)
(0.60872 1.46958 0)
(0.587673 1.47812 0)
(0.566506 1.48636 0)
(0.545224 1.4943 0)
(0.523831 1.50193 0)
(0.50233 1.50926 0)
(0.480728 1.51628 0)
(0.459027 1.52299 0)
(0.437233 1.52939 0)
(0.415349 1.53548 0)
(0.393381 1.54125 0)
(0.371333 1.54671 0)
(0.349209 1.55186 0)
(0.327013 1.55668 0)
(0.304751 1.5612 0)
(0.282427 1.56539 0)
(0.260045 1.56926 0)
(0.237611 1.57281 0)
(0.215127 1.57605 0)
(0.1926 1.57896 0)
(0.170034 1.58155 0)
(0.147433 1.58381 0)
(0.124802 1.58576 0)
(0.102145 1.58738 0)
(0.079468 1.58868 0)
(0.0567744 1.58965 0)
(0.0340693 1.5903 0)
(0.0113572 1.59062 0)
(1.57938 0.0112769 0)
(1.57906 0.0338285 0)
(1.57841 0.0563732 0)
(1.57745 0.0789064 0)
(1.57616 0.101423 0)
(1.57455 0.12392 0)
(1.57262 0.146391 0)
(1.57037 0.168832 0)
(1.5678 0.191239 0)
(1.56491 0.213607 0)
(1.5617 0.235931 0)
(1.55817 0.258208 0)
(1.55433 0.280431 0)
(1.55016 0.302597 0)
(1.54568 0.324702 0)
(1.54089 0.346741 0)
(1.53578 0.368708 0)
(1.53036 0.390601 0)
(1.52463 0.412414 0)
(1.51858 0.434143 0)
(1.51223 0.455783 0)
(1.50556 0.47733 0)
(1.49859 0.49878 0)
(1.49132 0.520129 0)
(1.48374 0.541371 0)
(1.47586 0.562503 0)
(1.46768 0.58352 0)
(1.45919 0.604418 0)
(1.45041 0.625193 0)
(1.44134 0.64584 0)
(1.43197 0.666356 0)
(1.42231 0.686736 0)
(1.41236 0.706976 0)
(1.40212 0.727071 0)
(1.39159 0.747019 0)
(1.38078 0.766814 0)
(1.36969 0.786453 0)
(1.35832 0.805931 0)
(1.34668 0.825245 0)
(1.33476 0.844391 0)
(1.32256 0.863364 0)
(1.3101 0.882162 0)
(1.29737 0.900779 0)
(1.28437 0.919213 0)
(1.27112 0.93746 0)
(1.2576 0.955515 0)
(1.24383 0.973375 0)
(1.2298 0.991037 0)
(1.21553 1.0085 0)
(1.201 1.02575 0)
(1.18623 1.0428 0)
(1.17122 1.05963 0)
(1.15597 1.07625 0)
(1.14048 1.09264 0)
(1.12476 1.10882 0)
(1.10882 1.12476 0)
(1.09264 1.14048 0)
(1.07625 1.15597 0)
(1.05963 1.17122 0)
(1.0428 1.18623 0)
(1.02575 1.201 0)
(1.0085 1.21553 0)
(0.991037 1.2298 0)
(0.973375 1.24383 0)
(0.955515 1.2576 0)
(0.93746 1.27112 0)
(0.919213 1.28437 0)
(0.900779 1.29737 0)
(0.882162 1.3101 0)
(0.863364 1.32256 0)
(0.844391 1.33476 0)
(0.825245 1.34668 0)
(0.805931 1.35832 0)
(0.786453 1.36969 0)
(0.766814 1.38078 0)
(0.747019 1.39159 0)
(0.727071 1.40212 0)
(0.706976 1.41236 0)
(0.686736 1.42231 0)
(0.666356 1.43197 0)
(0.64584 1.44134 0)
(0.625193 1.45041 0)
(0.604418 1.45919 0)
(0.58352 1.46768 0)
(0.562503 1.47586 0)
(0.541371 1.48374 0)
(0.520129 1.49132 0)
(0.49878 1.49859 0)
(0.47733 1.50556 0)
(0.455783 1.51223 0)
(0.434143 1.51858 0)
(0.412414 1.52463 0)
(0.390601 1.53036 0)
(0.368708 1.53578 0)
(0.346741 1.54089 0)
(0.324702 1.54568 0)
(0.302597 1.55016 0)
(0.280431 1.55433 0)
(0.258208 1.55817 0)
(0.235931 1.5617 0)
(0.213607 1.56491 0)
(0.191239 1.5678 0)
(0.168832 1.57037 0)
(0.146391 1.57262 0)
(0.12392 1.57455 0)
(0.101423 1.57616 0)
(0.0789064 1.57745 0)
(0.0563732 1.57841 0)
(0.0338285 1.57906 0)
(0.0112769 1.57938 0)
(1.56847 0.0111991 0)
(1.56815 0.0335949 0)
(1.56752 0.055984 0)
(1.56656 0.0783615 0)
(1.56528 0.100723 0)
(1.56368 0.123064 0)
(1.56176 0.14538 0)
(1.55953 0.167667 0)
(1.55697 0.189919 0)
(1.5541 0.212132 0)
(1.55092 0.234302 0)
(1.54741 0.256425 0)
(1.54359 0.278495 0)
(1.53946 0.300508 0)
(1.53501 0.32246 0)
(1.53025 0.344346 0)
(1.52518 0.366162 0)
(1.51979 0.387904 0)
(1.5141 0.409566 0)
(1.5081 0.431145 0)
(1.50179 0.452636 0)
(1.49517 0.474034 0)
(1.48825 0.495336 0)
(1.48102 0.516537 0)
(1.4735 0.537633 0)
(1.46567 0.558619 0)
(1.45754 0.579491 0)
(1.44912 0.600245 0)
(1.4404 0.620876 0)
(1.43139 0.641381 0)
(1.42208 0.661755 0)
(1.41249 0.681994 0)
(1.40261 0.702094 0)
(1.39244 0.722051 0)
(1.38198 0.741861 0)
(1.37125 0.761519 0)
(1.36024 0.781022 0)
(1.34895 0.800366 0)
(1.33738 0.819547 0)
(1.32554 0.83856 0)
(1.31343 0.857403 0)
(1.30105 0.87607 0)
(1.28841 0.894559 0)
(1.27551 0.912866 0)
(1.26234 0.930987 0)
(1.24892 0.948917 0)
(1.23524 0.966654 0)
(1.22131 0.984194 0)
(1.20713 1.00153 0)
(1.19271 1.01867 0)
(1.17804 1.0356 0)
(1.16313 1.05231 0)
(1.14799 1.06881 0)
(1.13261 1.0851 0)
(1.117 1.10116 0)
(1.10116 1.117 0)
(1.0851 1.13261 0)
(1.06881 1.14799 0)
(1.05231 1.16313 0)
(1.0356 1.17804 0)
(1.01867 1.19271 0)
(1.00153 1.20713 0)
(0.984194 1.22131 0)
(0.966654 1.23524 0)
(0.948917 1.24892 0)
(0.930987 1.26234 0)
(0.912866 1.27551 0)
(0.894559 1.28841 0)
(0.87607 1.30105 0)
(0.857403 1.31343 0)
(0.83856 1.32554 0)
(0.819547 1.33738 0)
(0.800366 1.34895 0)
(0.781022 1.36024 0)
(0.761519 1.37125 0)
(0.741861 1.38198 0)
(0.722051 1.39244 0)
(0.702094 1.40261 0)
(0.681994 1.41249 0)
(0.661755 1.42208 0)
(0.641381 1.43139 0)
(0.620876 1.4404 0)
(0.600245 1.44912 0)
(0.579491 1.45754 0)
(0.558619 1.46567 0)
(0.537633 1.4735 0)
(0.516537 1.48102 0)
(0.495336 1.48825 0)
(0.474034 1.49517 0)
(0.452636 1.50179 0)
(0.431145 1.5081 0)
(0.409566 1.5141 0)
(0.387904 1.51979 0)
(0.366162 1.52518 0)
(0.344346 1.53025 0)
(0.32246 1.53501 0)
(0.300508 1.53946 0)
(0.278495 1.54359 0)
(0.256425 1.54741 0)
(0.234302 1.55092 0)
(0.212132 1.5541 0)
(0.189919 1.55697 0)
(0.167667 1.55953 0)
(0.14538 1.56176 0)
(0.123064 1.56368 0)
(0.100723 1.56528 0)
(0.0783615 1.56656 0)
(0.055984 1.56752 0)
(0.0335949 1.56815 0)
(0.0111991 1.56847 0)
(1.55782 0.011123 0)
(1.5575 0.0333667 0)
(1.55686 0.0556036 0)
(1.55591 0.0778291 0)
(1.55464 0.100039 0)
(1.55305 0.122228 0)
(1.55115 0.144392 0)
(1.54893 0.166527 0)
(1.5464 0.188628 0)
(1.54354 0.210691 0)
(1.54038 0.23271 0)
(1.5369 0.254682 0)
(1.5331 0.276603 0)
(1.529 0.298466 0)
(1.52458 0.320269 0)
(1.51985 0.342007 0)
(1.51481 0.363675 0)
(1.50947 0.385268 0)
(1.50381 0.406783 0)
(1.49785 0.428215 0)
(1.49158 0.44956 0)
(1.48501 0.470813 0)
(1.47814 0.491971 0)
(1.47096 0.513027 0)
(1.46348 0.53398 0)
(1.45571 0.554823 0)
(1.44764 0.575553 0)
(1.43927 0.596166 0)
(1.43061 0.616657 0)
(1.42166 0.637023 0)
(1.41242 0.657259 0)
(1.40289 0.67736 0)
(1.39308 0.697324 0)
(1.38298 0.717145 0)
(1.37259 0.73682 0)
(1.36193 0.756345 0)
(1.35099 0.775715 0)
(1.33978 0.794928 0)
(1.32829 0.813978 0)
(1.31653 0.832862 0)
(1.30451 0.851577 0)
(1.29221 0.870118 0)
(1.27966 0.888481 0)
(1.26684 0.906663 0)
(1.25376 0.924661 0)
(1.24043 0.94247 0)
(1.22685 0.960086 0)
(1.21301 0.977507 0)
(1.19893 0.994729 0)
(1.1846 1.01175 0)
(1.17004 1.02856 0)
(1.15523 1.04516 0)
(1.14019 1.06155 0)
(1.12491 1.07772 0)
(1.10941 1.09368 0)
(1.09368 1.10941 0)
(1.07772 1.12491 0)
(1.06155 1.14019 0)
(1.04516 1.15523 0)
(1.02856 1.17004 0)
(1.01175 1.1846 0)
(0.994729 1.19893 0)
(0.977507 1.21301 0)
(0.960086 1.22685 0)
(0.94247 1.24043 0)
(0.924661 1.25376 0)
(0.906663 1.26684 0)
(0.888481 1.27966 0)
(0.870118 1.29221 0)
(0.851577 1.30451 0)
(0.832862 1.31653 0)
(0.813978 1.32829 0)
(0.794928 1.33978 0)
(0.775715 1.35099 0)
(0.756345 1.36193 0)
(0.73682 1.37259 0)
(0.717145 1.38298 0)
(0.697324 1.39308 0)
(0.67736 1.40289 0)
(0.657259 1.41242 0)
(0.637023 1.42166 0)
(0.616657 1.43061 0)
(0.596166 1.43927 0)
(0.575553 1.44764 0)
(0.554823 1.45571 0)
(0.53398 1.46348 0)
(0.513027 1.47096 0)
(0.491971 1.47814 0)
(0.470813 1.48501 0)
(0.44956 1.49158 0)
(0.428215 1.49785 0)
(0.406783 1.50381 0)
(0.385268 1.50947 0)
(0.363675 1.51481 0)
(0.342007 1.51985 0)
(0.320269 1.52458 0)
(0.298466 1.529 0)
(0.276603 1.5331 0)
(0.254682 1.5369 0)
(0.23271 1.54038 0)
(0.210691 1.54354 0)
(0.188628 1.5464 0)
(0.166527 1.54893 0)
(0.144392 1.55115 0)
(0.122228 1.55305 0)
(0.100039 1.55464 0)
(0.0778291 1.55591 0)
(0.0556036 1.55686 0)
(0.0333667 1.5575 0)
(0.011123 1.55782 0)
(1.54745 0.0110489 0)
(1.54713 0.0331445 0)
(1.5465 0.0552333 0)
(1.54555 0.0773109 0)
(1.54429 0.0993727 0)
(1.54271 0.121414 0)
(1.54082 0.143431 0)
(1.53862 0.165419 0)
(1.5361 0.187372 0)
(1.53327 0.209288 0)
(1.53012 0.231161 0)
(1.52667 0.252987 0)
(1.5229 0.274761 0)
(1.51882 0.296479 0)
(1.51443 0.318137 0)
(1.50973 0.33973 0)
(1.50473 0.361253 0)
(1.49942 0.382703 0)
(1.4938 0.404075 0)
(1.48788 0.425364 0)
(1.48165 0.446567 0)
(1.47512 0.467679 0)
(1.46829 0.488695 0)
(1.46117 0.509612 0)
(1.45374 0.530424 0)
(1.44602 0.551129 0)
(1.438 0.571721 0)
(1.42969 0.592197 0)
(1.42109 0.612552 0)
(1.4122 0.632782 0)
(1.40302 0.652882 0)
(1.39355 0.67285 0)
(1.3838 0.692681 0)
(1.37377 0.71237 0)
(1.36346 0.731914 0)
(1.35287 0.751309 0)
(1.342 0.770551 0)
(1.33086 0.789635 0)
(1.31945 0.808559 0)
(1.30777 0.827317 0)
(1.29582 0.845907 0)
(1.28361 0.864324 0)
(1.27114 0.882566 0)
(1.2584 0.900627 0)
(1.24542 0.918504 0)
(1.23217 0.936195 0)
(1.21868 0.953694 0)
(1.20494 0.970999 0)
(1.19095 0.988106 0)
(1.17672 1.00501 0)
(1.16225 1.02171 0)
(1.14754 1.0382 0)
(1.1326 1.05448 0)
(1.11742 1.07055 0)
(1.10202 1.0864 0)
(1.0864 1.10202 0)
(1.07055 1.11742 0)
(1.05448 1.1326 0)
(1.0382 1.14754 0)
(1.02171 1.16225 0)
(1.00501 1.17672 0)
(0.988106 1.19095 0)
(0.970999 1.20494 0)
(0.953694 1.21868 0)
(0.936195 1.23217 0)
(0.918504 1.24542 0)
(0.900627 1.2584 0)
(0.882566 1.27114 0)
(0.864324 1.28361 0)
(0.845907 1.29582 0)
(0.827317 1.30777 0)
(0.808559 1.31945 0)
(0.789635 1.33086 0)
(0.770551 1.342 0)
(0.751309 1.35287 0)
(0.731914 1.36346 0)
(0.71237 1.37377 0)
(0.692681 1.3838 0)
(0.67285 1.39355 0)
(0.652882 1.40302 0)
(0.632782 1.4122 0)
(0.612552 1.42109 0)
(0.592197 1.42969 0)
(0.571721 1.438 0)
(0.551129 1.44602 0)
(0.530424 1.45374 0)
(0.509612 1.46117 0)
(0.488695 1.46829 0)
(0.467679 1.47512 0)
(0.446567 1.48165 0)
(0.425364 1.48788 0)
(0.404075 1.4938 0)
(0.382703 1.49942 0)
(0.361253 1.50473 0)
(0.33973 1.50973 0)
(0.318137 1.51443 0)
(0.296479 1.51882 0)
(0.274761 1.5229 0)
(0.252987 1.52667 0)
(0.231161 1.53012 0)
(0.209288 1.53327 0)
(0.187372 1.5361 0)
(0.165419 1.53862 0)
(0.143431 1.54082 0)
(0.121414 1.54271 0)
(0.0993727 1.54429 0)
(0.0773109 1.54555 0)
(0.0552333 1.5465 0)
(0.0331445 1.54713 0)
(0.0110489 1.54745 0)
(1.53733 0.0109767 0)
(1.53701 0.0329278 0)
(1.53639 0.0548722 0)
(1.53545 0.0768054 0)
(1.53419 0.098723 0)
(1.53263 0.12062 0)
(1.53075 0.142493 0)
(1.52856 0.164337 0)
(1.52606 0.186147 0)
(1.52324 0.20792 0)
(1.52012 0.229649 0)
(1.51668 0.251333 0)
(1.51294 0.272964 0)
(1.50889 0.294541 0)
(1.50453 0.316057 0)
(1.49986 0.337508 0)
(1.49489 0.358891 0)
(1.48961 0.380201 0)
(1.48403 0.401433 0)
(1.47815 0.422583 0)
(1.47196 0.443647 0)
(1.46548 0.464621 0)
(1.45869 0.4855 0)
(1.45161 0.50628 0)
(1.44423 0.526956 0)
(1.43656 0.547526 0)
(1.4286 0.567983 0)
(1.42034 0.588325 0)
(1.4118 0.608547 0)
(1.40296 0.628644 0)
(1.39384 0.648614 0)
(1.38444 0.668451 0)
(1.37475 0.688152 0)
(1.36479 0.707712 0)
(1.35454 0.727129 0)
(1.34402 0.746397 0)
(1.33322 0.765512 0)
(1.32216 0.784472 0)
(1.31082 0.803272 0)
(1.29922 0.821908 0)
(1.28735 0.840376 0)
(1.27522 0.858673 0)
(1.26282 0.876795 0)
(1.25018 0.894738 0)
(1.23727 0.912499 0)
(1.22412 0.930073 0)
(1.21071 0.947458 0)
(1.19706 0.96465 0)
(1.18316 0.981645 0)
(1.16902 0.99844 0)
(1.15465 1.01503 0)
(1.14003 1.03142 0)
(1.12519 1.04759 0)
(1.11012 1.06355 0)
(1.09482 1.07929 0)
(1.07929 1.09482 0)
(1.06355 1.11012 0)
(1.04759 1.12519 0)
(1.03142 1.14003 0)
(1.01503 1.15465 0)
(0.99844 1.16902 0)
(0.981645 1.18316 0)
(0.96465 1.19706 0)
(0.947458 1.21071 0)
(0.930073 1.22412 0)
(0.912499 1.23727 0)
(0.894738 1.25018 0)
(0.876795 1.26282 0)
(0.858673 1.27522 0)
(0.840376 1.28735 0)
(0.821908 1.29922 0)
(0.803272 1.31082 0)
(0.784472 1.32216 0)
(0.765512 1.33322 0)
(0.746397 1.34402 0)
(0.727129 1.35454 0)
(0.707712 1.36479 0)
(0.688152 1.37475 0)
(0.668451 1.38444 0)
(0.648614 1.39384 0)
(0.628644 1.40296 0)
(0.608547 1.4118 0)
(0.588325 1.42034 0)
(0.567983 1.4286 0)
(0.547526 1.43656 0)
(0.526956 1.44423 0)
(0.50628 1.45161 0)
(0.4855 1.45869 0)
(0.464621 1.46548 0)
(0.443647 1.47196 0)
(0.422583 1.47815 0)
(0.401433 1.48403 0)
(0.380201 1.48961 0)
(0.358891 1.49489 0)
(0.337508 1.49986 0)
(0.316057 1.50453 0)
(0.294541 1.50889 0)
(0.272964 1.51294 0)
(0.251333 1.51668 0)
(0.229649 1.52012 0)
(0.20792 1.52324 0)
(0.186147 1.52606 0)
(0.164337 1.52856 0)
(0.142493 1.53075 0)
(0.12062 1.53263 0)
(0.098723 1.53419 0)
(0.0768054 1.53545 0)
(0.0548722 1.53639 0)
(0.0329278 1.53701 0)
(0.0109767 1.53733 0)
(1.52747 0.0109063 0)
(1.52716 0.0327167 0)
(1.52654 0.0545204 0)
(1.5256 0.076313 0)
(1.52436 0.09809 0)
(1.5228 0.119847 0)
(1.52093 0.14158 0)
(1.51876 0.163283 0)
(1.51627 0.184954 0)
(1.51348 0.206586 0)
(1.51037 0.228177 0)
(1.50696 0.249721 0)
(1.50324 0.271214 0)
(1.49921 0.292652 0)
(1.49488 0.31403 0)
(1.49024 0.335344 0)
(1.4853 0.35659 0)
(1.48006 0.377763 0)
(1.47452 0.398859 0)
(1.46867 0.419874 0)
(1.46252 0.440803 0)
(1.45608 0.461642 0)
(1.44934 0.482387 0)
(1.4423 0.503034 0)
(1.43497 0.523578 0)
(1.42735 0.544015 0)
(1.41944 0.564341 0)
(1.41123 0.584553 0)
(1.40274 0.604645 0)
(1.39397 0.624613 0)
(1.38491 0.644455 0)
(1.37556 0.664165 0)
(1.36594 0.68374 0)
(1.35603 0.703175 0)
(1.34586 0.722467 0)
(1.3354 0.741611 0)
(1.32468 0.760604 0)
(1.31368 0.779442 0)
(1.30242 0.798122 0)
(1.29089 0.816638 0)
(1.27909 0.834988 0)
(1.26704 0.853168 0)
(1.25473 0.871173 0)
(1.24216 0.889001 0)
(1.22934 0.906648 0)
(1.21627 0.92411 0)
(1.20295 0.941383 0)
(1.18938 0.958465 0)
(1.17557 0.975351 0)
(1.16153 0.992038 0)
(1.14724 1.00852 0)
(1.13272 1.0248 0)
(1.11798 1.04087 0)
(1.103 1.05673 0)
(1.0878 1.07237 0)
(1.07237 1.0878 0)
(1.05673 1.103 0)
(1.04087 1.11798 0)
(1.0248 1.13272 0)
(1.00852 1.14724 0)
(0.992038 1.16153 0)
(0.975351 1.17557 0)
(0.958465 1.18938 0)
(0.941383 1.20295 0)
(0.92411 1.21627 0)
(0.906648 1.22934 0)
(0.889001 1.24216 0)
(0.871173 1.25473 0)
(0.853168 1.26704 0)
(0.834988 1.27909 0)
(0.816638 1.29089 0)
(0.798122 1.30242 0)
(0.779442 1.31368 0)
(0.760604 1.32468 0)
(0.741611 1.3354 0)
(0.722467 1.34586 0)
(0.703175 1.35603 0)
(0.68374 1.36594 0)
(0.664165 1.37556 0)
(0.644455 1.38491 0)
(0.624613 1.39397 0)
(0.604645 1.40274 0)
(0.584553 1.41123 0)
(0.564341 1.41944 0)
(0.544015 1.42735 0)
(0.523578 1.43497 0)
(0.503034 1.4423 0)
(0.482387 1.44934 0)
(0.461642 1.45608 0)
(0.440803 1.46252 0)
(0.419874 1.46867 0)
(0.398859 1.47452 0)
(0.377763 1.48006 0)
(0.35659 1.4853 0)
(0.335344 1.49024 0)
(0.31403 1.49488 0)
(0.292652 1.49921 0)
(0.271214 1.50324 0)
(0.249721 1.50696 0)
(0.228177 1.51037 0)
(0.206586 1.51348 0)
(0.184954 1.51627 0)
(0.163283 1.51876 0)
(0.14158 1.52093 0)
(0.119847 1.5228 0)
(0.09809 1.52436 0)
(0.076313 1.5256 0)
(0.0545204 1.52654 0)
(0.0327167 1.52716 0)
(0.0109063 1.52747 0)
(1.51786 0.0108377 0)
(1.51755 0.0325108 0)
(1.51693 0.0541774 0)
(1.516 0.0758329 0)
(1.51477 0.0974729 0)
(1.51322 0.119093 0)
(1.51137 0.140689 0)
(1.5092 0.162256 0)
(1.50673 0.18379 0)
(1.50395 0.205287 0)
(1.50087 0.226741 0)
(1.49748 0.24815 0)
(1.49378 0.269508 0)
(1.48978 0.290811 0)
(1.48548 0.312055 0)
(1.48087 0.333235 0)
(1.47596 0.354347 0)
(1.47075 0.375386 0)
(1.46524 0.39635 0)
(1.45943 0.417232 0)
(1.45332 0.438029 0)
(1.44692 0.458738 0)
(1.44022 0.479352 0)
(1.43323 0.499869 0)
(1.42595 0.520284 0)
(1.41837 0.540592 0)
(1.41051 0.560791 0)
(1.40236 0.580875 0)
(1.39392 0.600841 0)
(1.3852 0.620684 0)
(1.37619 0.6404 0)
(1.36691 0.659986 0)
(1.35734 0.679438 0)
(1.3475 0.698751 0)
(1.33739 0.717921 0)
(1.327 0.736945 0)
(1.31634 0.755819 0)
(1.30542 0.774539 0)
(1.29422 0.7931 0)
(1.28277 0.8115 0)
(1.27105 0.829735 0)
(1.25907 0.8478 0)
(1.24683 0.865692 0)
(1.23435 0.883408 0)
(1.2216 0.900944 0)
(1.20862 0.918296 0)
(1.19538 0.935461 0)
(1.1819 0.952435 0)
(1.16818 0.969215 0)
(1.15422 0.985797 0)
(1.14003 1.00218 0)
(1.1256 1.01835 0)
(1.11094 1.03432 0)
(1.09606 1.05008 0)
(1.08095 1.06563 0)
(1.06563 1.08095 0)
(1.05008 1.09606 0)
(1.03432 1.11094 0)
(1.01835 1.1256 0)
(1.00218 1.14003 0)
(0.985797 1.15422 0)
(0.969215 1.16818 0)
(0.952435 1.1819 0)
(0.935461 1.19538 0)
(0.918296 1.20862 0)
(0.900944 1.2216 0)
(0.883408 1.23435 0)
(0.865692 1.24683 0)
(0.8478 1.25907 0)
(0.829735 1.27105 0)
(0.8115 1.28277 0)
(0.7931 1.29422 0)
(0.774539 1.30542 0)
(0.755819 1.31634 0)
(0.736945 1.327 0)
(0.717921 1.33739 0)
(0.698751 1.3475 0)
(0.679438 1.35734 0)
(0.659986 1.36691 0)
(0.6404 1.37619 0)
(0.620684 1.3852 0)
(0.600841 1.39392 0)
(0.580875 1.40236 0)
(0.560791 1.41051 0)
(0.540592 1.41837 0)
(0.520284 1.42595 0)
(0.499869 1.43323 0)
(0.479352 1.44022 0)
(0.458738 1.44692 0)
(0.438029 1.45332 0)
(0.417232 1.45943 0)
(0.39635 1.46524 0)
(0.375386 1.47075 0)
(0.354347 1.47596 0)
(0.333235 1.48087 0)
(0.312055 1.48548 0)
(0.290811 1.48978 0)
(0.269508 1.49378 0)
(0.24815 1.49748 0)
(0.226741 1.50087 0)
(0.205287 1.50395 0)
(0.18379 1.50673 0)
(0.162256 1.5092 0)
(0.140689 1.51137 0)
(0.119093 1.51322 0)
(0.0974729 1.51477 0)
(0.0758329 1.516 0)
(0.0541774 1.51693 0)
(0.0325108 1.51755 0)
(0.0108377 1.51786 0)
(1.5085 0.0107708 0)
(1.50819 0.0323103 0)
(1.50757 0.0538431 0)
(1.50665 0.075365 0)
(1.50542 0.0968715 0)
(1.50388 0.118358 0)
(1.50204 0.139821 0)
(1.49989 0.161255 0)
(1.49744 0.182656 0)
(1.49467 0.20402 0)
(1.49161 0.225343 0)
(1.48824 0.246619 0)
(1.48457 0.267845 0)
(1.48059 0.289017 0)
(1.47631 0.310129 0)
(1.47173 0.331179 0)
(1.46685 0.35216 0)
(1.46168 0.37307 0)
(1.4562 0.393904 0)
(1.45043 0.414658 0)
(1.44436 0.435327 0)
(1.43799 0.455907 0)
(1.43134 0.476394 0)
(1.42439 0.496785 0)
(1.41715 0.517074 0)
(1.40962 0.537257 0)
(1.40181 0.557331 0)
(1.3937 0.577291 0)
(1.38532 0.597134 0)
(1.37665 0.616854 0)
(1.3677 0.636449 0)
(1.35847 0.655914 0)
(1.34897 0.675246 0)
(1.33919 0.69444 0)
(1.32914 0.713492 0)
(1.31881 0.732398 0)
(1.30822 0.751156 0)
(1.29736 0.76976 0)
(1.28624 0.788207 0)
(1.27485 0.806493 0)
(1.2632 0.824615 0)
(1.2513 0.842569 0)
(1.23914 0.860351 0)
(1.22673 0.877958 0)
(1.21407 0.895385 0)
(1.20116 0.91263 0)
(1.188 0.929689 0)
(1.17461 0.946558 0)
(1.16097 0.963235 0)
(1.1471 0.979715 0)
(1.13299 0.995995 0)
(1.11865 1.01207 0)
(1.10409 1.02794 0)
(1.0893 1.0436 0)
(1.07428 1.05905 0)
(1.05905 1.07428 0)
(1.0436 1.0893 0)
(1.02794 1.10409 0)
(1.01207 1.11865 0)
(0.995995 1.13299 0)
(0.979715 1.1471 0)
(0.963235 1.16097 0)
(0.946558 1.17461 0)
(0.929689 1.188 0)
(0.91263 1.20116 0)
(0.895385 1.21407 0)
(0.877958 1.22673 0)
(0.860351 1.23914 0)
(0.842569 1.2513 0)
(0.824615 1.2632 0)
(0.806493 1.27485 0)
(0.788207 1.28624 0)
(0.76976 1.29736 0)
(0.751156 1.30822 0)
(0.732398 1.31881 0)
(0.713492 1.32914 0)
(0.69444 1.33919 0)
(0.675246 1.34897 0)
(0.655914 1.35847 0)
(0.636449 1.3677 0)
(0.616854 1.37665 0)
(0.597134 1.38532 0)
(0.577291 1.3937 0)
(0.557331 1.40181 0)
(0.537257 1.40962 0)
(0.517074 1.41715 0)
(0.496785 1.42439 0)
(0.476394 1.43134 0)
(0.455907 1.43799 0)
(0.435327 1.44436 0)
(0.414658 1.45043 0)
(0.393904 1.4562 0)
(0.37307 1.46168 0)
(0.35216 1.46685 0)
(0.331179 1.47173 0)
(0.310129 1.47631 0)
(0.289017 1.48059 0)
(0.267845 1.48457 0)
(0.246619 1.48824 0)
(0.225343 1.49161 0)
(0.20402 1.49467 0)
(0.182656 1.49744 0)
(0.161255 1.49989 0)
(0.139821 1.50204 0)
(0.118358 1.50388 0)
(0.0968715 1.50542 0)
(0.075365 1.50665 0)
(0.0538431 1.50757 0)
(0.0323103 1.50819 0)
(0.0107708 1.5085 0)
(1.49937 0.0107056 0)
(1.49906 0.0321147 0)
(1.49845 0.0535173 0)
(1.49753 0.0749089 0)
(1.49631 0.0962853 0)
(1.49478 0.117642 0)
(1.49295 0.138975 0)
(1.49081 0.160279 0)
(1.48837 0.181551 0)
(1.48563 0.202786 0)
(1.48258 0.223979 0)
(1.47923 0.245127 0)
(1.47558 0.266224 0)
(1.47163 0.287268 0)
(1.46738 0.308252 0)
(1.46283 0.329174 0)
(1.45798 0.350029 0)
(1.45283 0.370813 0)
(1.44739 0.391521 0)
(1.44165 0.412149 0)
(1.43562 0.432693 0)
(1.42929 0.453148 0)
(1.42267 0.473512 0)
(1.41577 0.493778 0)
(1.40857 0.513945 0)
(1.40109 0.534006 0)
(1.39332 0.553958 0)
(1.38527 0.573798 0)
(1.37694 0.59352 0)
(1.36832 0.613122 0)
(1.35943 0.632598 0)
(1.35025 0.651945 0)
(1.34081 0.67116 0)
(1.33109 0.690237 0)
(1.32109 0.709174 0)
(1.31083 0.727966 0)
(1.3003 0.74661 0)
(1.28951 0.765102 0)
(1.27845 0.783437 0)
(1.26714 0.801613 0)
(1.25556 0.819625 0)
(1.24373 0.837471 0)
(1.23164 0.855145 0)
(1.21931 0.872645 0)
(1.20672 0.889967 0)
(1.19389 0.907108 0)
(1.18082 0.924063 0)
(1.1675 0.940831 0)
(1.15395 0.957406 0)
(1.14016 0.973786 0)
(1.12614 0.989968 0)
(1.11188 1.00595 0)
(1.09741 1.02172 0)
(1.08271 1.03729 0)
(1.06778 1.05264 0)
(1.05264 1.06778 0)
(1.03729 1.08271 0)
(1.02172 1.09741 0)
(1.00595 1.11188 0)
(0.989968 1.12614 0)
(0.973786 1.14016 0)
(0.957406 1.15395 0)
(0.940831 1.1675 0)
(0.924063 1.18082 0)
(0.907108 1.19389 0)
(0.889967 1.20672 0)
(0.872645 1.21931 0)
(0.855145 1.23164 0)
(0.837471 1.24373 0)
(0.819625 1.25556 0)
(0.801613 1.26714 0)
(0.783437 1.27845 0)
(0.765102 1.28951 0)
(0.74661 1.3003 0)
(0.727966 1.31083 0)
(0.709174 1.32109 0)
(0.690237 1.33109 0)
(0.67116 1.34081 0)
(0.651945 1.35025 0)
(0.632598 1.35943 0)
(0.613122 1.36832 0)
(0.59352 1.37694 0)
(0.573798 1.38527 0)
(0.553958 1.39332 0)
(0.534006 1.40109 0)
(0.513945 1.40857 0)
(0.493778 1.41577 0)
(0.473512 1.42267 0)
(0.453148 1.42929 0)
(0.432693 1.43562 0)
(0.412149 1.44165 0)
(0.391521 1.44739 0)
(0.370813 1.45283 0)
(0.350029 1.45798 0)
(0.329174 1.46283 0)
(0.308252 1.46738 0)
(0.287268 1.47163 0)
(0.266224 1.47558 0)
(0.245127 1.47923 0)
(0.223979 1.48258 0)
(0.202786 1.48563 0)
(0.181551 1.48837 0)
(0.160279 1.49081 0)
(0.138975 1.49295 0)
(0.117642 1.49478 0)
(0.0962853 1.49631 0)
(0.0749089 1.49753 0)
(0.0535173 1.49845 0)
(0.0321147 1.49906 0)
(0.0107056 1.49937 0)
(1.49047 0.0106421 0)
(1.49017 0.0319242 0)
(1.48956 0.0531997 0)
(1.48865 0.0744645 0)
(1.48743 0.095714 0)
(1.48591 0.116944 0)
(1.48409 0.13815 0)
(1.48197 0.159328 0)
(1.47954 0.180474 0)
(1.47681 0.201582 0)
(1.47379 0.22265 0)
(1.47046 0.243672 0)
(1.46683 0.264645 0)
(1.4629 0.285563 0)
(1.45867 0.306423 0)
(1.45415 0.327221 0)
(1.44933 0.347952 0)
(1.44421 0.368613 0)
(1.4388 0.389198 0)
(1.43309 0.409703 0)
(1.4271 0.430125 0)
(1.42081 0.45046 0)
(1.41423 0.470702 0)
(1.40737 0.490849 0)
(1.40022 0.510895 0)
(1.39278 0.530837 0)
(1.38506 0.550671 0)
(1.37705 0.570393 0)
(1.36877 0.589999 0)
(1.3602 0.609484 0)
(1.35136 0.628844 0)
(1.34224 0.648077 0)
(1.33285 0.667177 0)
(1.32319 0.686142 0)
(1.31326 0.704966 0)
(1.30305 0.723647 0)
(1.29259 0.74218 0)
(1.28186 0.760562 0)
(1.27087 0.778789 0)
(1.25962 0.796857 0)
(1.24811 0.814762 0)
(1.23635 0.832501 0)
(1.22434 0.850071 0)
(1.21207 0.867467 0)
(1.19956 0.884687 0)
(1.18681 0.901725 0)
(1.17381 0.91858 0)
(1.16057 0.935248 0)
(1.1471 0.951725 0)
(1.13339 0.968008 0)
(1.11945 0.984094 0)
(1.10529 0.999979 0)
(1.0909 1.01566 0)
(1.07628 1.03113 0)
(1.06145 1.0464 0)
(1.0464 1.06145 0)
(1.03113 1.07628 0)
(1.01566 1.0909 0)
(0.999979 1.10529 0)
(0.984094 1.11945 0)
(0.968008 1.13339 0)
(0.951725 1.1471 0)
(0.935248 1.16057 0)
(0.91858 1.17381 0)
(0.901725 1.18681 0)
(0.884687 1.19956 0)
(0.867467 1.21207 0)
(0.850071 1.22434 0)
(0.832501 1.23635 0)
(0.814762 1.24811 0)
(0.796857 1.25962 0)
(0.778789 1.27087 0)
(0.760562 1.28186 0)
(0.74218 1.29259 0)
(0.723647 1.30305 0)
(0.704966 1.31326 0)
(0.686142 1.32319 0)
(0.667177 1.33285 0)
(0.648077 1.34224 0)
(0.628844 1.35136 0)
(0.609484 1.3602 0)
(0.589999 1.36877 0)
(0.570393 1.37705 0)
(0.550671 1.38506 0)