/*--------------------------------*- C++ -*----------------------------------*\
| =========                 |                                                 |
| \\      /  F ield         | OpenFOAM: The Open Source CFD Toolbox           |
|  \\    /   O peration     | Version:  2312                                  |
|   \\  /    A nd           | Website:  www.openfoam.com                      |
|    \\/     M anipulation  |                                                 |
\*---------------------------------------------------------------------------*/
FoamFile
{
    version     2.0;
    format      ascii;
    arch        "LSB;label=32;scalar=64";
    class       volTensorField;
    location    "50";
    object      F;
}
// * * * * * * * * * * * * * * * * * * * * * * * * * * * * * * * * * * * * * //

dimensions      [0 0 0 0 0 0 0];

internalField   nonuniform List<tensor> 
12870
(
(0.880191 -0.00249018 4.26871e-20 -0.00249018 1.22893 -1.25438e-17 0 0 1)
(0.880333 -0.0074685 -6.78695e-18 -0.0074685 1.22879 6.12792e-18 0 0 1)
(0.880617 -0.0124407 9.60912e-18 -0.0124407 1.22851 1.28949e-17 0 0 1)
(0.881044 -0.0174028 3.36746e-19 -0.0174028 1.22808 -6.26288e-18 0 0 1)
(0.881611 -0.0223507 -3.75804e-18 -0.0223507 1.22751 6.04303e-18 0 0 1)
(0.88232 -0.0272804 1.0079e-17 -0.0272804 1.2268 7.93232e-19 0 0 1)
(0.883169 -0.0321878 -2.76644e-18 -0.0321878 1.22595 -6.55652e-18 0 0 1)
(0.884158 -0.0370689 6.08541e-18 -0.0370689 1.22496 6.96227e-18 0 0 1)
(0.885286 -0.0419199 -1.51882e-18 -0.0419199 1.22384 1.24515e-17 0 0 1)
(0.886552 -0.0467366 5.83767e-18 -0.0467366 1.22257 7.12687e-18 0 0 1)
(0.887956 -0.0515152 7.60907e-18 -0.0515152 1.22117 -5.19352e-18 0 0 1)
(0.889495 -0.0562518 7.39524e-18 -0.0562518 1.21963 -2.42042e-17 0 0 1)
(0.891168 -0.0609425 -1.31891e-17 -0.0609425 1.21795 -2.37958e-18 0 0 1)
(0.892975 -0.0655835 -3.46097e-18 -0.0655835 1.21615 -6.75594e-19 0 0 1)
(0.894914 -0.0701711 -5.22262e-18 -0.0701711 1.21421 -7.50589e-18 0 0 1)
(0.896983 -0.0747013 -1.07597e-17 -0.0747013 1.21214 1.68649e-17 0 0 1)
(0.89918 -0.0791707 -1.48693e-18 -0.0791707 1.20994 6.09312e-18 0 0 1)
(0.901504 -0.0835755 3.2805e-18 -0.0835755 1.20762 8.37298e-19 0 0 1)
(0.903953 -0.0879121 4.88328e-18 -0.0879121 1.20517 -5.17635e-18 0 0 1)
(0.906525 -0.092177 1.74652e-18 -0.092177 1.2026 -6.02385e-18 0 0 1)
(0.909218 -0.0963668 0 -0.0963668 1.19991 0 0 0 1)
(0.912029 -0.100478 -5.10049e-18 -0.100478 1.19709 4.96247e-18 0 0 1)
(0.914956 -0.104507 -3.96131e-18 -0.104507 1.19417 1.19018e-17 0 0 1)
(0.917998 -0.108451 5.19585e-18 -0.108451 1.19113 -4.83023e-18 0 0 1)
(0.92115 -0.112307 1.16304e-18 -0.112307 1.18797 -1.29283e-17 0 0 1)
(0.924412 -0.11607 1.90375e-18 -0.11607 1.18471 1.41495e-17 0 0 1)
(0.927779 -0.11974 1.07959e-17 -0.11974 1.18134 -9.20656e-18 0 0 1)
(0.93125 -0.123311 -1.32569e-18 -0.123311 1.17787 -1.41264e-17 0 0 1)
(0.934822 -0.126782 -3.19522e-18 -0.126782 1.1743 -1.37728e-18 0 0 1)
(0.938491 -0.13015 -1.427e-17 -0.13015 1.17063 7.35133e-18 0 0 1)
(0.942255 -0.133411 -4.53022e-18 -0.133411 1.16687 2.55627e-17 0 0 1)
(0.94611 -0.136564 5.41185e-18 -0.136564 1.16301 -1.13164e-17 0 0 1)
(0.950054 -0.139605 -1.57272e-19 -0.139605 1.15907 -7.09248e-18 0 0 1)
(0.954084 -0.142533 -5.91361e-18 -0.142533 1.15504 3.99846e-18 0 0 1)
(0.958195 -0.145344 5.9288e-18 -0.145344 1.15093 -3.93578e-18 0 0 1)
(0.962384 -0.148036 1.0564e-19 -0.148036 1.14674 -7.11547e-18 0 0 1)
(0.966649 -0.150608 6.20536e-18 -0.150608 1.14247 -1.09015e-17 0 0 1)
(0.970986 -0.153057 6.17574e-19 -0.153057 1.13814 -1.42191e-17 0 0 1)
(0.975391 -0.155381 -1.80612e-17 -0.155381 1.13373 3.64378e-18 0 0 1)
(0.97986 -0.157579 -1.91347e-17 -0.157579 1.12926 1.75812e-17 0 0 1)
(0.98439 -0.159648 5.59162e-18 -0.159648 1.12473 3.65019e-18 0 0 1)
(0.988978 -0.161586 7.77648e-20 -0.161586 1.12014 5.23633e-20 0 0 1)
(0.993619 -0.163393 -1.63038e-18 -0.163393 1.1155 1.41388e-17 0 0 1)
(0.99831 -0.165067 7.26227e-18 -0.165067 1.11081 -1.02278e-17 0 0 1)
(1.00305 -0.166606 -2.64933e-18 -0.166606 1.10608 -1.95391e-18 0 0 1)
(1.00782 -0.168009 -2.2344e-18 -0.168009 1.1013 1.4056e-17 0 0 1)
(1.01264 -0.169275 0 -0.169275 1.09648 0 0 0 1)
(1.01749 -0.170403 1.04705e-17 -0.170403 1.09163 -7.6721e-18 0 0 1)
(1.02237 -0.171392 1.6019e-17 -0.171392 1.08675 -1.93074e-17 0 0 1)
(1.02728 -0.172241 4.58719e-19 -0.172241 1.08184 -1.61044e-17 0 0 1)
(1.03221 -0.17295 -7.62847e-18 -0.17295 1.07691 -6.70606e-18 0 0 1)
(1.03716 -0.173518 -2.01032e-17 -0.173518 1.07196 7.18561e-18 0 0 1)
(1.04212 -0.173944 -6.13821e-18 -0.173944 1.067 1.14239e-17 0 0 1)
(1.04709 -0.174228 -4.85566e-18 -0.174228 1.06203 -4.65198e-18 0 0 1)
(1.05207 -0.174371 -1.12173e-17 -0.174371 1.05705 6.55601e-18 0 0 1)
(1.05705 -0.174371 1.39246e-17 -0.174371 1.05207 5.19106e-18 0 0 1)
(1.06203 -0.174228 6.4857e-20 -0.174228 1.04709 6.76967e-20 0 0 1)
(1.067 -0.173944 9.08488e-18 -0.173944 1.04212 -8.65047e-18 0 0 1)
(1.07196 -0.173518 -6.68851e-18 -0.173518 1.03716 -7.39289e-18 0 0 1)
(1.07691 -0.17295 -5.04319e-18 -0.17295 1.03221 1.32619e-17 0 0 1)
(1.08184 -0.172241 -6.89188e-18 -0.172241 1.02728 1.58789e-18 0 0 1)
(1.08675 -0.171392 1.16958e-17 -0.171392 1.02237 -5.54817e-18 0 0 1)
(1.09163 -0.170403 -1.3573e-18 -0.170403 1.01749 -1.16798e-17 0 0 1)
(1.09648 -0.169275 -1.07169e-17 -0.169275 1.01264 1.68361e-17 0 0 1)
(1.1013 -0.168009 2.07661e-18 -0.168009 1.00782 2.73314e-18 0 0 1)
(1.10608 -0.166606 -2.78229e-20 -0.166606 1.00305 -3.77254e-20 0 0 1)
(1.11081 -0.165067 7.08433e-18 -0.165067 0.99831 -8.77935e-19 0 0 1)
(1.1155 -0.163393 3.20756e-18 -0.163393 0.993619 -6.37731e-18 0 0 1)
(1.12014 -0.161586 1.55941e-17 -0.161586 0.988978 -1.05286e-17 0 0 1)
(1.12473 -0.159648 -1.78298e-17 -0.159648 0.98439 -4.36566e-18 0 0 1)
(1.12926 -0.157579 -8.86577e-18 -0.157579 0.97986 9.44851e-18 0 0 1)
(1.13373 -0.155381 1.07198e-17 -0.155381 0.975391 -6.51413e-18 0 0 1)
(1.13814 -0.153057 -7.30868e-18 -0.153057 0.970986 1.22645e-17 0 0 1)
(1.14247 -0.150608 -5.47407e-18 -0.150608 0.966649 3.06203e-18 0 0 1)
(1.14674 -0.148036 1.09662e-17 -0.148036 0.962384 -6.09004e-18 0 0 1)
(1.15093 -0.145344 3.93578e-18 -0.145344 0.958195 -5.9288e-18 0 0 1)
(1.15504 -0.142533 -1.55856e-18 -0.142533 0.954084 -3.0056e-18 0 0 1)
(1.15907 -0.139605 -5.59798e-18 -0.139605 0.950054 2.82836e-18 0 0 1)
(1.16301 -0.136564 4.39591e-18 -0.136564 0.94611 9.10443e-18 0 0 1)
(1.16687 -0.133411 1.97768e-20 -0.133411 0.942255 4.24994e-20 0 0 1)
(1.17063 -0.13015 1.27932e-17 -0.13015 0.938491 -2.12515e-18 0 0 1)
(1.1743 -0.126782 -1.41253e-17 -0.126782 0.934822 -1.08079e-18 0 0 1)
(1.17787 -0.123311 3.79722e-18 -0.123311 0.93125 9.16731e-18 0 0 1)
(1.18134 -0.11974 1.37925e-17 -0.11974 0.927779 -1.62374e-17 0 0 1)
(1.18471 -0.11607 -1.1738e-17 -0.11607 0.924412 4.4236e-18 0 0 1)
(1.18797 -0.112307 -5.8839e-18 -0.112307 0.92115 2.1718e-18 0 0 1)
(1.19113 -0.108451 -1.07291e-17 -0.108451 0.917998 7.32768e-18 0 0 1)
(1.19417 -0.104507 1.8885e-17 -0.104507 0.914956 -2.84075e-18 0 0 1)
(1.19709 -0.100478 5.66668e-20 -0.100478 0.912029 1.78734e-19 0 0 1)
(1.19991 -0.0963668 -1.10737e-17 -0.0963668 0.909218 6.72682e-18 0 0 1)
(1.2026 -0.092177 -9.04865e-19 -0.092177 0.906525 -3.16511e-18 0 0 1)
(1.20517 -0.0879121 1.74363e-18 -0.0879121 0.903953 6.44592e-18 0 0 1)
(1.20762 -0.0835755 2.43082e-17 -0.0835755 0.901504 -6.20431e-18 0 0 1)
(1.20994 -0.0791707 -1.37451e-17 -0.0791707 0.89918 -3.51922e-18 0 0 1)
(1.21214 -0.0747013 -2.44961e-17 -0.0747013 0.896983 5.41617e-18 0 0 1)
(1.21421 -0.0701711 1.50503e-17 -0.0701711 0.894914 1.06287e-17 0 0 1)
(1.21615 -0.0655835 5.52052e-18 -0.0655835 0.892975 -4.45555e-18 0 0 1)
(1.21795 -0.0609425 -1.23445e-17 -0.0609425 0.891168 2.22718e-18 0 0 1)
(1.21963 -0.0562518 6.7295e-18 -0.0562518 0.889495 2.24541e-18 0 0 1)
(1.22117 -0.0515152 2.43003e-17 -0.0515152 0.887956 -7.09522e-18 0 0 1)
(1.22257 -0.0467366 -6.19841e-18 -0.0467366 0.886552 9.64346e-19 0 0 1)
(1.22384 -0.0419199 -1.90957e-17 -0.0419199 0.885286 -1.15232e-18 0 0 1)
(1.22496 -0.0370689 0 -0.0370689 0.884158 0 0 0 1)
(1.22595 -0.0321878 6.24271e-18 -0.0321878 0.883169 -6.04656e-19 0 0 1)
(1.2268 -0.0272804 1.87558e-17 -0.0272804 0.88232 -1.49962e-18 0 0 1)
(1.22751 -0.0223507 -6.68624e-18 -0.0223507 0.881611 -6.23766e-18 0 0 1)
(1.22808 -0.0174028 -1.23636e-17 -0.0174028 0.881044 3.91448e-18 0 0 1)
(1.22851 -0.0124407 1.88028e-17 -0.0124407 0.880617 -6.94997e-19 0 0 1)
(1.22879 -0.0074685 -1.43023e-19 -0.0074685 0.880333 -6.67605e-18 0 0 1)
(1.22893 -0.00249018 -1.25438e-17 -0.00249018 0.880191 4.26871e-20 0 0 1)
(0.882552 -0.00243871 -3.36542e-18 -0.00243871 1.22408 -2.40295e-20 0 0 1)
(0.882691 -0.00731413 -6.4534e-18 -0.00731413 1.22395 -1.22486e-17 0 0 1)
(0.882969 -0.0121836 -2.48229e-21 -0.0121836 1.22367 -8.86151e-23 0 0 1)
(0.883387 -0.0170431 -9.29949e-19 -0.0170431 1.22325 1.81375e-17 0 0 1)
(0.883943 -0.0218887 -5.9991e-18 -0.0218887 1.22269 -1.25186e-17 0 0 1)
(0.884637 -0.0267165 3.39783e-18 -0.0267165 1.222 2.67415e-19 0 0 1)
(0.885469 -0.0315225 -1.04451e-19 -0.0315225 1.22117 -9.72301e-21 0 0 1)
(0.886437 -0.0363028 7.34429e-20 -0.0363027 1.2202 7.89599e-21 0 0 1)
(0.887542 -0.0410534 -4.89671e-18 -0.0410534 1.21909 1.16e-17 0 0 1)
(0.888782 -0.0457706 4.11427e-18 -0.0457706 1.21785 -5.54831e-18 0 0 1)
(0.890156 -0.0504504 -6.13771e-20 -0.0504504 1.21648 -9.27248e-21 0 0 1)
(0.891663 -0.0550891 7.99541e-18 -0.0550891 1.21497 1.35976e-17 0 0 1)
(0.893302 -0.0596829 -8.69622e-18 -0.0596829 1.21333 1.0734e-17 0 0 1)
(0.895072 -0.064228 -9.97525e-19 -0.064228 1.21156 -1.25308e-17 0 0 1)
(0.89697 -0.0687207 -9.73143e-18 -0.0687207 1.20967 -2.04428e-18 0 0 1)
(0.898997 -0.0731573 -1.33478e-18 -0.0731573 1.20764 5.90478e-18 0 0 1)
(0.901149 -0.0775343 2.82645e-18 -0.0775343 1.20549 -1.1773e-17 0 0 1)
(0.903425 -0.0818481 4.74998e-18 -0.0818481 1.20321 -5.03548e-18 0 0 1)
(0.905823 -0.086095 -3.27871e-18 -0.086095 1.20081 -8.86897e-19 0 0 1)
(0.908342 -0.0902718 -6.47174e-18 -0.0902718 1.19829 -1.85019e-18 0 0 1)
(0.910979 -0.094375 -1.72528e-18 -0.094375 1.19566 5.80275e-18 0 0 1)
(0.913732 -0.0984011 -8.23784e-18 -0.0984011 1.1929 3.73897e-18 0 0 1)
(0.916599 -0.102347 3.19328e-18 -0.102347 1.19004 1.06283e-18 0 0 1)
(0.919577 -0.106209 3.14848e-18 -0.106209 1.18706 1.0981e-18 0 0 1)
(0.922664 -0.109985 3.02874e-18 -0.109985 1.18397 -1.82273e-17 0 0 1)
(0.925858 -0.113671 -9.40967e-19 -0.113671 1.18078 -6.83719e-18 0 0 1)
(0.929156 -0.117265 -1.44554e-18 -0.117265 1.17748 1.24546e-17 0 0 1)
(0.932556 -0.120763 -1.46757e-17 -0.120763 1.17408 4.73672e-19 0 0 1)
(0.936053 -0.124162 -5.47922e-18 -0.124162 1.17058 4.23042e-18 0 0 1)
(0.939647 -0.12746 2.53974e-18 -0.12746 1.16699 -5.4957e-18 0 0 1)
(0.943333 -0.130654 3.5539e-18 -0.130654 1.1633 8.3309e-18 0 0 1)
(0.947109 -0.133741 3.36806e-18 -0.133741 1.15953 8.34868e-18 0 0 1)
(0.950971 -0.13672 6.82741e-20 -0.13672 1.15567 3.41756e-20 0 0 1)
(0.954917 -0.139587 2.75401e-18 -0.139587 1.15172 -5.39118e-18 0 0 1)
(0.958943 -0.14234 2.89579e-18 -0.14234 1.14769 -5.31637e-18 0 0 1)
(0.963046 -0.144976 -1.2481e-20 -0.144976 1.14359 -6.93126e-21 0 0 1)
(0.967223 -0.147495 3.03404e-18 -0.147495 1.13941 -5.23862e-18 0 0 1)
(0.97147 -0.149894 -1.18745e-17 -0.149894 1.13517 7.0328e-18 0 0 1)
(0.975784 -0.15217 -1.19981e-17 -0.15217 1.13085 6.8476e-18 0 0 1)
(0.980161 -0.154322 6.4871e-18 -0.154322 1.12648 -1.0223e-17 0 0 1)
(0.984598 -0.156348 1.78771e-17 -0.156348 1.12204 -2.78886e-18 0 0 1)
(0.98909 -0.158246 0 -0.158246 1.11755 0 0 0 1)
(0.993635 -0.160016 -1.38996e-18 -0.160016 1.113 1.37747e-17 0 0 1)
(0.998229 -0.161655 -3.57853e-18 -0.161655 1.10841 4.88332e-18 0 0 1)
(1.00287 -0.163162 7.21136e-18 -0.163162 1.10377 -9.72571e-18 0 0 1)
(1.00755 -0.164536 -6.33746e-18 -0.164536 1.09909 2.78777e-18 0 0 1)
(1.01226 -0.165776 1.51645e-18 -0.165776 1.09437 8.87382e-18 0 0 1)
(1.01702 -0.166881 7.57293e-18 -0.166881 1.08962 -9.4469e-18 0 0 1)
(1.0218 -0.16785 -5.14534e-18 -0.16785 1.08484 -4.26898e-18 0 0 1)
(1.0266 -0.168681 -3.87803e-18 -0.168681 1.08003 4.64907e-18 0 0 1)
(1.03143 -0.169375 -7.51312e-18 -0.169375 1.07521 -6.60466e-18 0 0 1)
(1.03628 -0.169931 -3.37339e-18 -0.169931 1.07036 -1.12156e-17 0 0 1)
(1.04113 -0.170349 -6.56131e-18 -0.170349 1.0655 2.16256e-18 0 0 1)
(1.046 -0.170627 -1.32243e-17 -0.170627 1.06063 4.0978e-18 0 0 1)
(1.05088 -0.170767 1.69575e-17 -0.170767 1.05576 -1.72863e-17 0 0 1)
(1.05576 -0.170767 1.33559e-17 -0.170767 1.05088 -3.69816e-18 0 0 1)
(1.06063 -0.170627 -2.67985e-17 -0.170627 1.046 7.03116e-18 0 0 1)
(1.0655 -0.170349 -2.18371e-18 -0.170349 1.04113 6.53859e-18 0 0 1)
(1.07036 -0.169931 9.15623e-21 -0.169931 1.03628 -1.80366e-17 0 0 1)
(1.07521 -0.169375 4.43302e-18 -0.169375 1.03143 5.04278e-18 0 0 1)
(1.08003 -0.168681 -1.35579e-17 -0.168681 1.0266 2.7685e-18 0 0 1)
(1.08484 -0.16785 6.39812e-18 -0.16785 1.0218 7.71155e-18 0 0 1)
(1.08962 -0.166881 3.15059e-18 -0.166881 1.01702 -1.53862e-17 0 0 1)
(1.09437 -0.165776 6.8173e-18 -0.165776 1.01226 -1.11148e-18 0 0 1)
(1.09909 -0.164536 -7.59582e-18 -0.164536 1.00755 1.00159e-17 0 0 1)
(1.10377 -0.163162 7.93656e-18 -0.163162 1.00287 1.07613e-17 0 0 1)
(1.10841 -0.161655 -1.92403e-18 -0.161655 0.998229 -2.68835e-18 0 0 1)
(1.113 -0.160016 -3.39854e-20 -0.160016 0.993635 -4.89482e-20 0 0 1)
(1.11755 -0.158246 -3.70889e-18 -0.158246 0.98909 -5.50808e-18 0 0 1)
(1.12204 -0.156348 -1.05576e-17 -0.156348 0.984598 -5.09832e-18 0 0 1)
(1.12648 -0.154322 1.02154e-17 -0.154322 0.980161 -6.49916e-18 0 0 1)
(1.13085 -0.15217 1.37147e-17 -0.15217 0.975784 -1.23781e-17 0 0 1)
(1.13517 -0.149894 -1.38096e-17 -0.149894 0.97147 4.52859e-19 0 0 1)
(1.13941 -0.147495 -1.24545e-17 -0.147495 0.967223 1.47822e-17 0 0 1)
(1.14359 -0.144976 6.93738e-18 -0.144976 0.963046 2.29317e-20 0 0 1)
(1.14769 -0.14234 1.46795e-20 -0.14234 0.958943 2.73459e-20 0 0 1)
(1.15172 -0.139587 5.37804e-18 -0.139587 0.954917 -2.77935e-18 0 0 1)
(1.15567 -0.13672 1.62301e-17 -0.13672 0.950971 -8.14956e-18 0 0 1)
(1.15953 -0.133741 1.46225e-18 -0.133741 0.947109 3.02849e-18 0 0 1)
(1.1633 -0.130654 -8.15651e-18 -0.130654 0.943333 1.11697e-17 0 0 1)
(1.16699 -0.12746 1.3635e-18 -0.12746 0.939647 3.04296e-18 0 0 1)
(1.17058 -0.124162 -3.97201e-18 -0.124162 0.936053 -9.21485e-18 0 0 1)
(1.17408 -0.120763 -4.33198e-18 -0.120763 0.932556 5.36091e-18 0 0 1)
(1.17748 -0.117265 1.76588e-20 -0.117265 0.929156 4.44155e-20 0 0 1)
(1.18078 -0.113671 5.66489e-18 -0.113671 0.925858 -2.13485e-18 0 0 1)
(1.18397 -0.109985 -1.15358e-18 -0.109985 0.922664 -3.16163e-18 0 0 1)
(1.18706 -0.106209 -5.71884e-18 -0.106209 0.919577 1.98569e-18 0 0 1)
(1.19004 -0.102347 1.25123e-17 -0.102347 0.916599 -7.45705e-19 0 0 1)
(1.1929 -0.0984011 4.10836e-20 -0.0984011 0.913732 1.29583e-19 0 0 1)
(1.19566 -0.094375 -1.6446e-17 -0.094375 0.910979 8.36845e-18 0 0 1)
(1.19829 -0.0902718 4.89778e-18 -0.0902718 0.908342 -4.89184e-18 0 0 1)
(1.20081 -0.086095 9.34862e-18 -0.086095 0.905823 1.13762e-17 0 0 1)
(1.20321 -0.0818481 -8.32313e-19 -0.0818481 0.903425 -3.26097e-18 0 0 1)
(1.20549 -0.0775343 -1.33192e-17 -0.0775343 0.901149 -3.61418e-18 0 0 1)
(1.20764 -0.0731573 1.25212e-17 -0.0731573 0.898997 4.92738e-19 0 0 1)
(1.20967 -0.0687207 7.31532e-18 -0.0687207 0.89697 5.37641e-18 0 0 1)
(1.21156 -0.064228 -1.78319e-17 -0.064228 0.895072 3.44323e-18 0 0 1)
(1.21333 -0.0596829 0 -0.0596829 0.893302 0 0 0 1)
(1.21497 -0.0550891 2.19573e-18 -0.0550891 0.891663 1.32503e-17 0 0 1)
(1.21648 -0.0504504 1.7952e-17 -0.0504504 0.890156 -2.74942e-18 0 0 1)
(1.21785 -0.0457706 -6.88702e-18 -0.0457706 0.888782 -5.6933e-18 0 0 1)
(1.21909 -0.0410534 -1.76301e-17 -0.0410534 0.887542 5.45811e-18 0 0 1)
(1.2202 -0.0363028 5.66174e-18 -0.0363028 0.886437 -3.97082e-18 0 0 1)
(1.22117 -0.0315225 5.71367e-18 -0.0315225 0.885469 -3.93468e-18 0 0 1)
(1.222 -0.0267165 5.77282e-18 -0.0267165 0.884637 -3.80752e-18 0 0 1)
(1.22269 -0.0218887 -4.28251e-19 -0.0218887 0.883943 -6.65518e-18 0 0 1)
(1.22325 -0.0170431 1.66587e-19 -0.0170431 0.883387 3.33031e-18 0 0 1)
(1.22367 -0.0121836 0 -0.0121836 0.882969 0 0 0 1)
(1.22395 -0.00731413 -1.42838e-19 -0.00731413 0.882691 -6.66742e-18 0 0 1)
(1.22408 -0.00243871 0 -0.00243871 0.882552 0 0 0 1)
(0.885902 -0.00238159 5.01891e-20 -0.00238159 1.21944 -5.84668e-18 0 0 1)
(0.886038 -0.00714281 4.34073e-20 -0.00714281 1.2193 9.29897e-22 0 0 1)
(0.88631 -0.0118982 -1.32035e-17 -0.0118982 1.21903 -4.71564e-19 0 0 1)
(0.886717 -0.0166439 -6.84826e-18 -0.0166439 1.21862 5.51164e-18 0 0 1)
(0.88726 -0.021376 9.86713e-18 -0.021376 1.21808 6.34935e-19 0 0 1)
(0.887938 -0.0260907 -5.58816e-18 -0.0260907 1.2174 -1.21697e-17 0 0 1)
(0.88875 -0.0307841 -3.33049e-18 -0.0307841 1.21659 -3.10027e-19 0 0 1)
(0.889696 -0.0354524 -7.73838e-18 -0.0354524 1.21564 1.09292e-17 0 0 1)
(0.890775 -0.0400918 2.54768e-18 -0.0400918 1.21456 6.201e-18 0 0 1)
(0.891986 -0.0446985 6.64146e-18 -0.0446985 1.21335 9.06547e-19 0 0 1)
(0.893328 -0.0492687 2.5725e-18 -0.0492687 1.21201 -1.73511e-17 0 0 1)
(0.8948 -0.0537988 1.98074e-18 -0.0537988 1.21054 -1.1525e-17 0 0 1)
(0.896401 -0.0582849 2.31226e-18 -0.0582849 1.20894 2.41824e-17 0 0 1)
(0.898129 -0.0627236 -1.18411e-18 -0.0627236 1.20721 5.72611e-18 0 0 1)
(0.899983 -0.067111 2.43355e-18 -0.067111 1.20535 -1.14378e-17 0 0 1)
(0.901962 -0.0714438 6.45128e-18 -0.0714438 1.20338 1.45171e-18 0 0 1)
(0.904063 -0.0757182 3.18094e-18 -0.0757182 1.20127 7.63675e-19 0 0 1)
(0.906286 -0.0799309 -1.38287e-18 -0.0799309 1.19905 5.68138e-18 0 0 1)
(0.908628 -0.0840784 -3.03715e-18 -0.0840784 1.19671 1.12925e-17 0 0 1)
(0.911088 -0.0881574 1.59788e-17 -0.0881574 1.19425 -7.59415e-18 0 0 1)
(0.913663 -0.0921644 8.31404e-20 -0.0921644 1.19167 2.50585e-20 0 0 1)
(0.916352 -0.0960963 3.10571e-18 -0.0960963 1.18899 9.84646e-19 0 0 1)
(0.919151 -0.0999498 1.1315e-17 -0.0999498 1.18619 -2.39626e-18 0 0 1)
(0.92206 -0.103722 1.18387e-18 -0.103722 1.18328 6.6052e-18 0 0 1)
(0.925075 -0.107409 -3.11394e-18 -0.107409 1.18026 -1.13618e-18 0 0 1)
(0.928194 -0.111009 -6.11027e-18 -0.111009 1.17714 -2.32884e-18 0 0 1)
(0.931415 -0.114518 -2.11195e-18 -0.114518 1.17392 5.45239e-18 0 0 1)
(0.934735 -0.117934 1.56003e-20 -0.117934 1.1706 6.46191e-21 0 0 1)
(0.93815 -0.121254 1.22618e-17 -0.121254 1.16719 -2.01824e-17 0 0 1)
(0.94166 -0.124474 5.43231e-18 -0.124474 1.16368 -3.9729e-18 0 0 1)
(0.945259 -0.127593 -4.97296e-18 -0.127593 1.16008 1.05838e-17 0 0 1)
(0.948947 -0.130609 -5.43045e-20 -0.130609 1.15639 -2.622e-20 0 0 1)
(0.952719 -0.133517 3.39405e-19 -0.133517 1.15262 6.7084e-18 0 0 1)
(0.956572 -0.136317 -2.7376e-18 -0.136317 1.14876 5.16666e-18 0 0 1)
(0.960504 -0.139006 -3.06825e-18 -0.139006 1.14483 -8.28313e-18 0 0 1)
(0.964511 -0.141581 5.72917e-18 -0.141581 1.14083 -3.50634e-18 0 0 1)
(0.96859 -0.14404 0 -0.14404 1.13675 0 0 0 1)
(0.972738 -0.146383 5.70145e-18 -0.146383 1.1326 3.38283e-18 0 0 1)
(0.97695 -0.148605 5.60114e-18 -0.148605 1.12839 3.43239e-18 0 0 1)
(0.981225 -0.150707 6.16409e-18 -0.150707 1.12411 -9.93778e-18 0 0 1)
(0.985558 -0.152686 5.57356e-18 -0.152686 1.11978 3.6384e-18 0 0 1)
(0.989945 -0.15454 -6.5674e-18 -0.15454 1.11539 9.67552e-18 0 0 1)
(0.994384 -0.156268 -6.63357e-18 -0.156268 1.11095 9.63028e-18 0 0 1)
(0.99887 -0.157869 5.32044e-18 -0.157869 1.10647 3.80778e-18 0 0 1)
(1.0034 -0.159341 -6.07502e-18 -0.159341 1.10194 2.78465e-18 0 0 1)
(1.00797 -0.160682 -3.16883e-20 -0.160682 1.09737 -2.40764e-20 0 0 1)
(1.01258 -0.161893 8.86221e-18 -0.161893 1.09276 -4.89169e-19 0 0 1)
(1.01722 -0.162972 -9.92881e-18 -0.162972 1.08812 7.01705e-18 0 0 1)
(1.02188 -0.163918 1.49131e-17 -0.163918 1.08345 -1.80161e-17 0 0 1)
(1.02658 -0.16473 1.32347e-18 -0.16473 1.07876 -6.55882e-18 0 0 1)
(1.03129 -0.165408 -9.14042e-18 -0.165408 1.07404 1.53195e-17 0 0 1)
(1.03602 -0.165951 -1.44852e-18 -0.165951 1.06931 6.57418e-18 0 0 1)
(1.04077 -0.166359 -3.95593e-18 -0.166359 1.06457 4.30561e-18 0 0 1)
(1.04553 -0.166631 4.0292e-18 -0.166631 1.05981 -4.237e-18 0 0 1)
(1.05029 -0.166767 1.29091e-17 -0.166767 1.05505 -3.69459e-18 0 0 1)
(1.05505 -0.166767 -1.7027e-17 -0.166767 1.05029 7.7134e-18 0 0 1)
(1.05981 -0.166631 -4.24367e-18 -0.166631 1.04553 4.02224e-18 0 0 1)
(1.06457 -0.166359 1.31147e-17 -0.166359 1.04077 -3.07479e-18 0 0 1)
(1.06931 -0.165951 2.08845e-18 -0.165951 1.03602 -6.40665e-18 0 0 1)
(1.07404 -0.165408 5.73318e-20 -0.165408 1.03129 6.52174e-20 0 0 1)
(1.07876 -0.16473 2.11594e-18 -0.16473 1.02658 2.47745e-18 0 0 1)
(1.08345 -0.163918 4.50286e-18 -0.163918 1.02188 -3.72967e-18 0 0 1)
(1.08812 -0.162972 -2.48636e-18 -0.162972 1.01722 6.23284e-18 0 0 1)
(1.09276 -0.161893 4.60976e-18 -0.161893 1.01258 -3.59671e-18 0 0 1)
(1.09737 -0.160682 1.39535e-17 -0.160682 1.00797 -1.0629e-17 0 0 1)
(1.10194 -0.159341 -5.47053e-18 -0.159341 1.0034 1.2284e-17 0 0 1)
(1.10647 -0.157869 -1.4292e-17 -0.157869 0.99887 1.01693e-17 0 0 1)
(1.11095 -0.156268 3.78851e-18 -0.156268 0.994384 5.45649e-18 0 0 1)
(1.11539 -0.15454 -3.69337e-18 -0.15454 0.989945 -5.48502e-18 0 0 1)
(1.11978 -0.152686 3.63115e-18 -0.152686 0.985558 5.56245e-18 0 0 1)
(1.12411 -0.150707 1.76504e-18 -0.150707 0.981225 2.79005e-18 0 0 1)
(1.12839 -0.148605 -3.42545e-18 -0.148605 0.97695 -5.58983e-18 0 0 1)
(1.1326 -0.146383 1.6739e-18 -0.146383 0.972738 -8.63723e-18 0 0 1)
(1.13675 -0.14404 1.34337e-17 -0.14404 0.96859 -8.82468e-20 0 0 1)
(1.14083 -0.141581 1.59468e-18 -0.141581 0.964511 2.8715e-18 0 0 1)
(1.14483 -0.139006 -1.58203e-18 -0.139006 0.960504 -2.94711e-18 0 0 1)
(1.14876 -0.136317 1.51203e-18 -0.136317 0.956572 2.91587e-18 0 0 1)
(1.15262 -0.133517 -2.96747e-18 -0.133517 0.952719 -5.92825e-18 0 0 1)
(1.15639 -0.130609 7.65539e-18 -0.130609 0.948947 -1.10393e-17 0 0 1)
(1.16008 -0.127593 1.11935e-20 -0.127593 0.945259 2.40547e-20 0 0 1)
(1.16368 -0.124474 -1.60161e-17 -0.124474 0.94166 7.15274e-18 0 0 1)
(1.16719 -0.121254 -1.07267e-17 -0.121254 0.93815 4.65652e-18 0 0 1)
(1.1706 -0.117934 1.6187e-17 -0.117934 0.934735 -6.7571e-18 0 0 1)
(1.17392 -0.114518 1.21058e-17 -0.114518 0.931415 -1.20309e-18 0 0 1)
(1.17714 -0.111009 -1.63983e-17 -0.111009 0.928194 6.22674e-18 0 0 1)
(1.18026 -0.107409 -7.76216e-18 -0.107409 0.925075 -4.21583e-18 0 0 1)
(1.18328 -0.103722 -2.17327e-18 -0.103722 0.92206 -6.23122e-18 0 0 1)
(1.18619 -0.0999498 1.76693e-17 -0.0999498 0.919151 -2.45602e-18 0 0 1)
(1.18899 -0.0960963 -1.96419e-18 -0.0960963 0.916352 -6.19532e-18 0 0 1)
(1.19167 -0.0921644 -1.58567e-17 -0.0921644 0.913663 8.17319e-18 0 0 1)
(1.19425 -0.0881574 1.77583e-17 -0.0881574 0.911088 -1.69705e-18 0 0 1)
(1.19671 -0.0840784 1.8265e-20 -0.0840784 0.908628 6.75221e-20 0 0 1)
(1.19905 -0.0799309 -1.29841e-17 -0.0799309 0.906286 -3.58652e-18 0 0 1)
(1.20127 -0.0757182 1.01356e-20 -0.0757182 0.904063 4.22177e-20 0 0 1)
(1.20338 -0.0714438 1.43926e-18 -0.0714438 0.901962 6.39598e-18 0 0 1)
(1.20535 -0.067111 4.37595e-18 -0.067111 0.899983 -7.60964e-18 0 0 1)
(1.20721 -0.0627236 -6.37526e-18 -0.0627236 0.898129 -2.14143e-18 0 0 1)
(1.20894 -0.0582849 1.20811e-17 -0.0582849 0.896401 1.10035e-18 0 0 1)
(1.21054 -0.0537988 6.31309e-18 -0.0537988 0.8948 2.33213e-18 0 0 1)
(1.21201 -0.0492687 -1.10784e-17 -0.0492687 0.893328 4.95161e-18 0 0 1)
(1.21335 -0.0446985 -8.88442e-19 -0.0446985 0.891986 -6.50882e-18 0 0 1)
(1.21456 -0.0400918 -1.08071e-17 -0.0400918 0.890775 7.97985e-18 0 0 1)
(1.21564 -0.0354524 -1.12739e-17 -0.0354524 0.889696 4.53257e-18 0 0 1)
(1.21659 -0.0307841 6.12974e-18 -0.0307841 0.88875 2.76695e-18 0 0 1)
(1.2174 -0.0260907 1.114e-17 -0.0260907 0.887938 -7.49647e-18 0 0 1)
(1.21808 -0.021376 5.83622e-18 -0.021376 0.88726 -3.53798e-19 0 0 1)
(1.21862 -0.0166439 -3.31203e-19 -0.0166439 0.886717 -6.6212e-18 0 0 1)
(1.21903 -0.0118982 0 -0.0118982 0.88631 0 0 0 1)
(1.2193 -0.00714281 0 -0.00714281 0.886038 0 0 0 1)
(1.21944 -0.00238159 0 -0.00238159 0.885902 0 0 0 1)
(0.888585 -0.00233032 -3.31032e-18 -0.00233032 1.21494 -2.36361e-20 0 0 1)
(0.888718 -0.00698905 -2.00197e-19 -0.00698905 1.21481 1.12976e-17 0 0 1)
(0.888984 -0.0116421 2.86321e-18 -0.0116421 1.21454 1.14087e-17 0 0 1)
(0.889383 -0.0162856 1.10427e-18 -0.0162856 1.21414 -2.25715e-17 0 0 1)
(0.889914 -0.0209159 7.28166e-18 -0.0209159 1.21361 -1.08541e-17 0 0 1)
(0.890577 -0.0255291 -8.31476e-18 -0.0255291 1.21295 2.2014e-17 0 0 1)
(0.891372 -0.0301215 -2.46544e-20 -0.0301215 1.21215 -2.29502e-21 0 0 1)
(0.892298 -0.0346893 7.77375e-18 -0.0346893 1.21123 -1.05286e-17 0 0 1)
(0.893353 -0.0392288 1.26817e-18 -0.0392288 1.21017 -1.12283e-17 0 0 1)
(0.894538 -0.0437363 3.24618e-18 -0.0437363 1.20899 4.43098e-19 0 0 1)
(0.895851 -0.0482081 1.11892e-17 -0.0482081 1.20767 1.31179e-17 0 0 1)
(0.897291 -0.0526407 -6.41556e-18 -0.0526407 1.20623 -1.06313e-18 0 0 1)
(0.898857 -0.0570303 -1.96506e-18 -0.0570303 1.20467 1.11272e-17 0 0 1)
(0.900548 -0.0613733 -8.20968e-20 -0.0613733 1.20297 -1.60255e-20 0 0 1)
(0.902363 -0.0656664 -8.7583e-19 -0.0656664 1.20116 -1.17299e-17 0 0 1)
(0.904299 -0.0699058 0 -0.0699058 1.19922 0 0 0 1)
(0.906355 -0.0740883 -3.21894e-18 -0.0740883 1.19717 -7.72799e-19 0 0 1)
(0.90853 -0.0782103 0 -0.0782103 1.19499 0 0 0 1)
(0.910822 -0.0822685 1.20976e-17 -0.0822685 1.1927 -2.01383e-17 0 0 1)
(0.913229 -0.0862596 6.30016e-18 -0.0862596 1.19029 1.80113e-18 0 0 1)
(0.915748 -0.0901804 -1.28842e-17 -0.0901804 1.18777 1.97194e-17 0 0 1)
(0.918379 -0.0940276 3.31885e-18 -0.0940276 1.18514 -1.08013e-17 0 0 1)
(0.921118 -0.0977982 -6.20264e-18 -0.0977982 1.1824 -2.06444e-18 0 0 1)
(0.923964 -0.101489 -1.05678e-17 -0.101489 1.17956 2.02478e-17 0 0 1)
(0.926915 -0.105097 3.03129e-18 -0.105097 1.17661 1.10602e-18 0 0 1)
(0.929967 -0.108619 7.10158e-18 -0.108619 1.17356 -9.38546e-18 0 0 1)
(0.933118 -0.112053 3.02148e-18 -0.112053 1.1704 1.20128e-18 0 0 1)
(0.936366 -0.115395 6.00803e-18 -0.115395 1.16716 2.48861e-18 0 0 1)
(0.939709 -0.118643 -3.04002e-18 -0.118643 1.16381 -1.31038e-18 0 0 1)
(0.943142 -0.121795 5.37372e-20 -0.121795 1.16038 2.40788e-20 0 0 1)
(0.946665 -0.124847 -4.72923e-18 -0.124847 1.15686 1.0262e-17 0 0 1)
(0.950273 -0.127797 -2.2298e-20 -0.127797 1.15325 -1.07661e-20 0 0 1)
(0.953963 -0.130643 7.47987e-20 -0.130643 1.14956 3.74414e-20 0 0 1)
(0.957734 -0.133383 -8.12515e-18 -0.133383 1.14579 8.51477e-18 0 0 1)
(0.961581 -0.136013 8.22409e-18 -0.136013 1.14194 -8.40959e-18 0 0 1)
(0.965502 -0.138533 5.52239e-18 -0.138533 1.13802 -9.8579e-18 0 0 1)
(0.969493 -0.14094 5.59005e-18 -0.14094 1.13403 -9.81969e-18 0 0 1)
(0.973551 -0.143231 2.12948e-20 -0.143231 1.12997 1.26348e-20 0 0 1)
(0.977673 -0.145406 -1.74027e-17 -0.145406 1.12585 1.58398e-17 0 0 1)
(0.981856 -0.147463 5.98455e-18 -0.147463 1.12167 -9.58451e-18 0 0 1)
(0.986095 -0.149399 7.8684e-19 -0.149399 1.11743 -1.29801e-17 0 0 1)
(0.990388 -0.151213 -6.34572e-18 -0.151213 1.11313 9.34916e-18 0 0 1)
(0.994731 -0.152904 0 -0.152904 1.10879 0 0 0 1)
(0.999121 -0.15447 -1.25386e-18 -0.15447 1.1044 1.29976e-17 0 0 1)
(1.00355 -0.15591 -1.99277e-20 -0.15591 1.09997 -1.46968e-20 0 0 1)
(1.00803 -0.157224 1.9861e-17 -0.157224 1.0955 8.99485e-19 0 0 1)
(1.01253 -0.158408 -6.93064e-18 -0.158408 1.09099 8.92419e-18 0 0 1)
(1.01707 -0.159464 5.04426e-18 -0.159464 1.08645 4.06492e-18 0 0 1)
(1.02164 -0.16039 5.06913e-18 -0.16039 1.08188 4.20576e-18 0 0 1)
(1.02623 -0.161184 -4.96378e-18 -0.161184 1.07729 -4.23947e-18 0 0 1)
(1.03085 -0.161848 9.9337e-18 -0.161848 1.07268 -6.31196e-18 0 0 1)
(1.03548 -0.162379 2.41117e-18 -0.162379 1.06805 2.18144e-18 0 0 1)
(1.04012 -0.162778 -7.712e-18 -0.162778 1.0634 8.25824e-18 0 0 1)
(1.04477 -0.163044 4.6779e-18 -0.163044 1.05875 4.48167e-18 0 0 1)
(1.04943 -0.163177 1.02778e-17 -0.163177 1.05409 -5.73456e-18 0 0 1)
(1.05409 -0.163177 0 -0.163177 1.04943 0 0 0 1)
(1.05875 -0.163044 8.99761e-18 -0.163044 1.04477 9.39156e-18 0 0 1)
(1.0634 -0.162778 -6.02572e-18 -0.162778 1.04012 1.01099e-17 0 0 1)
(1.06805 -0.162379 4.34626e-18 -0.162379 1.03548 4.80397e-18 0 0 1)
(1.07268 -0.161848 8.51397e-18 -0.161848 1.03085 -7.42881e-18 0 0 1)
(1.07729 -0.161184 -4.34147e-18 -0.161184 1.02623 1.2315e-17 0 0 1)
(1.08188 -0.16039 -4.20576e-18 -0.16039 1.02164 -5.06913e-18 0 0 1)
(1.08645 -0.159464 1.4982e-17 -0.159464 1.01707 5.83795e-19 0 0 1)
(1.09099 -0.158408 2.00387e-18 -0.158408 1.01253 2.56065e-18 0 0 1)
(1.0955 -0.157224 0 -0.157224 1.00803 0 0 0 1)
(1.09997 -0.15591 -3.85986e-18 -0.15591 1.00355 -5.23365e-18 0 0 1)
(1.1044 -0.15447 7.60374e-18 -0.15447 0.999121 1.06243e-17 0 0 1)
(1.10879 -0.152904 -3.66076e-18 -0.152904 0.994731 1.45396e-17 0 0 1)
(1.11313 -0.151213 -4.67193e-20 -0.151213 0.990388 -6.9383e-20 0 0 1)
(1.11743 -0.149399 1.48489e-17 -0.149399 0.986095 2.07598e-18 0 0 1)
(1.12167 -0.147463 -9.55804e-18 -0.147463 0.981856 6.0264e-18 0 0 1)
(1.12585 -0.145406 1.68598e-18 -0.145406 0.977673 2.75127e-18 0 0 1)
(1.12997 -0.143231 1.30572e-17 -0.143231 0.973551 -1.36992e-19 0 0 1)
(1.13403 -0.14094 0 -0.14094 0.969493 0 0 0 1)
(1.13802 -0.138533 -3.48622e-18 -0.138533 0.965502 1.69957e-17 0 0 1)
(1.14194 -0.136013 -1.17113e-20 -0.136013 0.961581 -2.18163e-20 0 0 1)
(1.14579 -0.133383 3.85058e-20 -0.133383 0.957734 7.42563e-20 0 0 1)
(1.14956 -0.130643 -1.10835e-20 -0.130643 0.953963 -2.21419e-20 0 0 1)
(1.15325 -0.127797 1.01935e-17 -0.127797 0.950273 -4.87528e-18 0 0 1)
(1.15686 -0.124847 -2.74363e-18 -0.124847 0.946665 -5.89594e-18 0 0 1)
(1.16038 -0.121795 2.68324e-18 -0.121795 0.943142 5.98825e-18 0 0 1)
(1.16381 -0.118643 3.88453e-18 -0.118643 0.939709 9.0119e-18 0 0 1)
(1.16716 -0.115395 4.99975e-18 -0.115395 0.936366 1.20705e-17 0 0 1)
(1.1704 -0.112053 -2.40256e-18 -0.112053 0.933118 -6.04295e-18 0 0 1)
(1.17356 -0.108619 -1.28805e-17 -0.108619 0.929967 -2.06841e-18 0 0 1)
(1.17661 -0.105097 -9.4944e-18 -0.105097 0.926915 6.94357e-18 0 0 1)
(1.17956 -0.101489 1.17454e-17 -0.101489 0.923964 -6.34765e-19 0 0 1)
(1.1824 -0.0977982 1.38333e-17 -0.0977982 0.921118 5.78264e-18 0 0 1)
(1.18514 -0.0940276 -3.94848e-18 -0.0940276 0.918379 -1.2454e-17 0 0 1)
(1.18777 -0.0901804 2.83193e-18 -0.0901804 0.915748 9.39596e-18 0 0 1)
(1.19029 -0.0862596 2.69747e-18 -0.0862596 0.913229 9.43544e-18 0 0 1)