/*--------------------------------*- C++ -*----------------------------------*\
| =========                 |                                                 |
| \\      /  F ield         | OpenFOAM: The Open Source CFD Toolbox           |
|  \\    /   O peration     | Version:  2312                                  |
|   \\  /    A nd           | Website:  www.openfoam.com                      |
|    \\/     M anipulation  |                                                 |
\*---------------------------------------------------------------------------*/
FoamFile
{
    version     2.0;
    format      ascii;
    arch        "LSB;label=32;scalar=64";
    class       pointVectorField;
    location    "50";
    object      pointD;
}
// * * * * * * * * * * * * * * * * * * * * * * * * * * * * * * * * * * * * * //

dimensions      [0 1 0 0 0 0 0];

internalField   nonuniform List<vector> 
26196
(
(1.62002 0 0)
(1.21427 0 0)
(0 1.62002 0)
(0 1.21427 0)
(1.62002 0 0)
(1.21427 0 0)
(0 1.21427 0)
(0 1.62002 0)
(1.60805 0 0)
(1.59635 0 0)
(1.58503 0 0)
(1.57395 0 0)
(1.56317 0 0)
(1.55265 0 0)
(1.54241 0 0)
(1.53242 0 0)
(1.52269 0 0)
(1.5132 0 0)
(1.50396 0 0)
(1.49495 0 0)
(1.48616 0 0)
(1.4776 0 0)
(1.46926 0 0)
(1.46113 0 0)
(1.45321 0 0)
(1.44549 0 0)
(1.43796 0 0)
(1.43063 0 0)
(1.42348 0 0)
(1.41652 0 0)
(1.40974 0 0)
(1.40313 0 0)
(1.39669 0 0)
(1.39042 0 0)
(1.38431 0 0)
(1.37836 0 0)
(1.37257 0 0)
(1.36692 0 0)
(1.36143 0 0)
(1.35608 0 0)
(1.35087 0 0)
(1.3458 0 0)
(1.34086 0 0)
(1.33606 0 0)
(1.33139 0 0)
(1.32684 0 0)
(1.32242 0 0)
(1.31811 0 0)
(1.31393 0 0)
(1.30986 0 0)
(1.30591 0 0)
(1.30206 0 0)
(1.29833 0 0)
(1.2947 0 0)
(1.29117 0 0)
(1.28775 0 0)
(1.28442 0 0)
(1.2812 0 0)
(1.27807 0 0)
(1.27503 0 0)
(1.27208 0 0)
(1.26923 0 0)
(1.26646 0 0)
(1.26378 0 0)
(1.26119 0 0)
(1.25867 0 0)
(1.25624 0 0)
(1.25389 0 0)
(1.25161 0 0)
(1.24942 0 0)
(1.2473 0 0)
(1.24525 0 0)
(1.24327 0 0)
(1.24137 0 0)
(1.23953 0 0)
(1.23776 0 0)
(1.23606 0 0)
(1.23443 0 0)
(1.23286 0 0)
(1.23135 0 0)
(1.22991 0 0)
(1.22853 0 0)
(1.2272 0 0)
(1.22594 0 0)
(1.22473 0 0)
(1.22359 0 0)
(1.22249 0 0)
(1.22145 0 0)
(1.22047 0 0)
(1.21954 0 0)
(1.21866 0 0)
(1.21783 0 0)
(1.21705 0 0)
(1.21632 0 0)
(1.21564 0 0)
(1.21501 0 0)
(1.21442 0 0)
(1.21388 0 0)
(1.21339 0 0)
(1.21294 0 0)
(1.21253 0 0)
(1.21217 0 0)
(1.21185 0 0)
(1.21157 0 0)
(1.21133 0 0)
(1.21113 0 0)
(1.21097 0 0)
(1.21086 0 0)
(1.21078 0 0)
(1.21073 0 0)
(1.21073 0 0)
(1.21076 0 0)
(1.21083 0 0)
(1.21093 0 0)
(1.21107 0 0)
(1.21124 0 0)
(1.21145 0 0)
(1.21169 0 0)
(1.21196 0 0)
(1.21227 0 0)
(1.21261 0 0)
(1.21298 0 0)
(1.21337 0 0)
(1.21381 0 0)
(1.21415 0.0173391 0)
(1.21377 0.0346747 0)
(1.21316 0.0520033 0)
(1.21229 0.0693212 0)
(1.21118 0.086625 0)
(1.20981 0.103911 0)
(1.20821 0.121176 0)
(1.20635 0.138416 0)
(1.20425 0.155628 0)
(1.20191 0.172809 0)
(1.19932 0.189954 0)
(1.19648 0.20706 0)
(1.19341 0.224124 0)
(1.19008 0.241142 0)
(1.18652 0.258111 0)
(1.18271 0.275028 0)
(1.17866 0.291889 0)
(1.17438 0.308689 0)
(1.16985 0.325428 0)
(1.16508 0.342099 0)
(1.16008 0.358701 0)
(1.15484 0.37523 0)
(1.14936 0.391682 0)
(1.14365 0.408054 0)
(1.13771 0.424344 0)
(1.13153 0.440546 0)
(1.12513 0.456659 0)
(1.11849 0.472679 0)
(1.11163 0.488602 0)
(1.10454 0.504426 0)
(1.09722 0.520146 0)
(1.08968 0.535761 0)
(1.08192 0.551267 0)
(1.07394 0.56666 0)
(1.06574 0.581937 0)
(1.05732 0.597096 0)
(1.04869 0.612133 0)
(1.03984 0.627046 0)
(1.03078 0.64183 0)
(1.02151 0.656483 0)
(1.01203 0.671003 0)
(1.00235 0.685386 0)
(0.992456 0.699629 0)
(0.982364 0.71373 0)
(0.972073 0.727684 0)
(0.961583 0.741491 0)
(0.950896 0.755146 0)
(0.940016 0.768648 0)
(0.928945 0.781992 0)
(0.917683 0.795177 0)
(0.906235 0.8082 0)
(0.894602 0.821058 0)
(0.882787 0.833749 0)
(0.870791 0.84627 0)
(0.858618 0.858618 0)
(0.84627 0.870791 0)
(0.833749 0.882787 0)
(0.821058 0.894602 0)
(0.8082 0.906235 0)
(0.795177 0.917683 0)
(0.781992 0.928945 0)
(0.768648 0.940016 0)
(0.755146 0.950896 0)
(0.741491 0.961583 0)
(0.727684 0.972073 0)
(0.71373 0.982364 0)
(0.699629 0.992456 0)
(0.685386 1.00235 0)
(0.671003 1.01203 0)
(0.656483 1.02151 0)
(0.64183 1.03078 0)
(0.627046 1.03984 0)
(0.612133 1.04869 0)
(0.597096 1.05732 0)
(0.581937 1.06574 0)
(0.56666 1.07394 0)
(0.551267 1.08192 0)
(0.535761 1.08968 0)
(0.520146 1.09722 0)
(0.504426 1.10454 0)
(0.488602 1.11163 0)
(0.472679 1.11849 0)
(0.456659 1.12513 0)
(0.440546 1.13153 0)
(0.424344 1.13771 0)
(0.408054 1.14365 0)
(0.391682 1.14936 0)
(0.37523 1.15484 0)
(0.358701 1.16008 0)
(0.342099 1.16508 0)
(0.325428 1.16985 0)
(0.308689 1.17438 0)
(0.291889 1.17866 0)
(0.275028 1.18271 0)
(0.258111 1.18652 0)
(0.241142 1.19008 0)
(0.224124 1.19341 0)
(0.20706 1.19648 0)
(0.189954 1.19932 0)
(0.172809 1.20191 0)
(0.155628 1.20425 0)
(0.138416 1.20635 0)
(0.121176 1.20821 0)
(0.103911 1.20981 0)
(0.086625 1.21118 0)
(0.0693212 1.21229 0)
(0.0520033 1.21316 0)
(0.0346747 1.21377 0)
(0.0173391 1.21415 0)
(0 1.21381 0)
(0 1.21337 0)
(0 1.21298 0)
(0 1.21261 0)
(0 1.21227 0)
(0 1.21196 0)
(0 1.21169 0)
(0 1.21145 0)
(0 1.21124 0)
(0 1.21107 0)
(0 1.21093 0)
(0 1.21083 0)
(0 1.21076 0)
(0 1.21073 0)
(0 1.21073 0)
(0 1.21078 0)
(0 1.21086 0)
(0 1.21097 0)
(0 1.21113 0)
(0 1.21133 0)
(0 1.21157 0)
(0 1.21185 0)
(0 1.21217 0)
(0 1.21253 0)
(0 1.21294 0)
(0 1.21339 0)
(0 1.21388 0)
(0 1.21442 0)
(0 1.21501 0)
(0 1.21564 0)
(0 1.21632 0)
(0 1.21705 0)
(0 1.21783 0)
(0 1.21866 0)
(0 1.21954 0)
(0 1.22047 0)
(0 1.22145 0)
(0 1.22249 0)
(0 1.22359 0)
(0 1.22473 0)
(0 1.22594 0)
(0 1.2272 0)
(0 1.22853 0)
(0 1.22991 0)
(0 1.23135 0)
(0 1.23286 0)
(0 1.23443 0)
(0 1.23606 0)
(0 1.23776 0)
(0 1.23953 0)
(0 1.24137 0)
(0 1.24327 0)
(0 1.24525 0)
(0 1.2473 0)
(0 1.24942 0)
(0 1.25161 0)
(0 1.25389 0)
(0 1.25624 0)
(0 1.25867 0)
(0 1.26119 0)
(0 1.26378 0)
(0 1.26646 0)
(0 1.26923 0)
(0 1.27208 0)
(0 1.27503 0)
(0 1.27807 0)
(0 1.2812 0)
(0 1.28442 0)
(0 1.28775 0)
(0 1.29117 0)
(0 1.2947 0)
(0 1.29833 0)
(0 1.30206 0)
(0 1.30591 0)
(0 1.30986 0)
(0 1.31393 0)
(0 1.31811 0)
(0 1.32242 0)
(0 1.32684 0)
(0 1.33139 0)
(0 1.33606 0)
(0 1.34086 0)
(0 1.3458 0)
(0 1.35087 0)
(0 1.35608 0)
(0 1.36143 0)
(0 1.36692 0)
(0 1.37257 0)
(0 1.37836 0)
(0 1.38431 0)
(0 1.39042 0)
(0 1.39669 0)
(0 1.40313 0)
(0 1.40974 0)
(0 1.41652 0)
(0 1.42348 0)
(0 1.43063 0)
(0 1.43796 0)
(0 1.44549 0)
(0 1.45321 0)
(0 1.46113 0)
(0 1.46926 0)
(0 1.4776 0)
(0 1.48616 0)
(0 1.49495 0)
(0 1.50396 0)
(0 1.5132 0)
(0 1.52269 0)
(0 1.53242 0)
(0 1.54241 0)
(0 1.55265 0)
(0 1.56317 0)
(0 1.57395 0)
(0 1.58503 0)
(0 1.59635 0)
(0 1.60805 0)
(0.023133 1.61985 0)
(0.0462613 1.61936 0)
(0.0693801 1.61853 0)
(0.0924848 1.61737 0)
(0.115571 1.61589 0)
(0.138633 1.61407 0)
(0.161667 1.61193 0)
(0.184668 1.60946 0)
(0.207631 1.60666 0)
(0.230552 1.60353 0)
(0.253426 1.60007 0)
(0.276249 1.59629 0)
(0.299015 1.59218 0)
(0.32172 1.58775 0)
(0.344359 1.58299 0)
(0.366928 1.57792 0)
(0.389423 1.57251 0)
(0.411838 1.56679 0)
(0.434169 1.56075 0)
(0.456411 1.55439 0)
(0.478561 1.54772 0)
(0.500613 1.54073 0)
(0.522562 1.53342 0)
(0.544406 1.5258 0)
(0.566138 1.51787 0)
(0.587754 1.50963 0)
(0.609251 1.50109 0)
(0.630624 1.49224 0)
(0.651868 1.48308 0)
(0.672979 1.47362 0)
(0.693953 1.46386 0)
(0.714785 1.4538 0)
(0.735472 1.44345 0)
(0.756009 1.4328 0)
(0.776391 1.42185 0)
(0.796615 1.41062 0)
(0.816677 1.3991 0)
(0.836572 1.3873 0)
(0.856297 1.37521 0)
(0.875847 1.36284 0)
(0.895218 1.3502 0)
(0.914407 1.33728 0)
(0.93341 1.32408 0)
(0.952222 1.31062 0)
(0.97084 1.29689 0)
(0.98926 1.28289 0)
(1.00748 1.26864 0)
(1.02549 1.25412 0)
(1.04329 1.23935 0)
(1.06089 1.22433 0)
(1.07826 1.20905 0)
(1.09541 1.19353 0)
(1.11235 1.17777 0)
(1.12905 1.16177 0)
(1.14552 1.14552 0)
(1.16177 1.12905 0)
(1.17777 1.11235 0)
(1.19353 1.09541 0)
(1.20905 1.07826 0)
(1.22433 1.06089 0)
(1.23935 1.04329 0)
(1.25412 1.02549 0)
(1.26864 1.00748 0)
(1.28289 0.98926 0)
(1.29689 0.97084 0)
(1.31062 0.952222 0)
(1.32408 0.93341 0)
(1.33728 0.914407 0)
(1.3502 0.895218 0)
(1.36284 0.875847 0)
(1.37521 0.856297 0)
(1.3873 0.836572 0)
(1.3991 0.816677 0)
(1.41062 0.796615 0)
(1.42185 0.776391 0)
(1.4328 0.756009 0)
(1.44345 0.735472 0)
(1.4538 0.714785 0)
(1.46386 0.693953 0)
(1.47362 0.672979 0)
(1.48308 0.651868 0)
(1.49224 0.630624 0)
(1.50109 0.609251 0)
(1.50963 0.587754 0)
(1.51787 0.566138 0)
(1.5258 0.544405 0)
(1.53342 0.522562 0)
(1.54073 0.500613 0)
(1.54772 0.478561 0)
(1.55439 0.456411 0)
(1.56075 0.434169 0)
(1.56679 0.411838 0)
(1.57251 0.389423 0)
(1.57792 0.366928 0)
(1.58299 0.344359 0)
(1.58775 0.32172 0)
(1.59218 0.299015 0)
(1.59629 0.276249 0)
(1.60007 0.253426 0)
(1.60353 0.230552 0)
(1.60666 0.207631 0)
(1.60946 0.184668 0)
(1.61193 0.161667 0)
(1.61407 0.138633 0)
(1.61589 0.115571 0)
(1.61737 0.0924848 0)
(1.61853 0.0693801 0)
(1.61936 0.0462613 0)
(1.61985 0.023133 0)
(1.60805 0 0)
(1.59635 0 0)
(1.58503 0 0)
(1.57395 0 0)
(1.56317 0 0)
(1.55265 0 0)
(1.54241 0 0)
(1.53242 0 0)
(1.52269 0 0)
(1.5132 0 0)
(1.50396 0 0)
(1.49495 0 0)
(1.48616 0 0)
(1.4776 0 0)
(1.46926 0 0)
(1.46113 0 0)
(1.45321 0 0)
(1.44549 0 0)
(1.43796 0 0)
(1.43063 0 0)
(1.42348 0 0)
(1.41652 0 0)
(1.40974 0 0)
(1.40313 0 0)
(1.39669 0 0)
(1.39042 0 0)
(1.38431 0 0)
(1.37836 0 0)
(1.37257 0 0)
(1.36692 0 0)
(1.36143 0 0)
(1.35608 0 0)
(1.35087 0 0)
(1.3458 0 0)
(1.34086 0 0)
(1.33606 0 0)
(1.33139 0 0)
(1.32684 0 0)
(1.32242 0 0)
(1.31811 0 0)
(1.31393 0 0)
(1.30986 0 0)
(1.30591 0 0)
(1.30206 0 0)
(1.29833 0 0)
(1.2947 0 0)
(1.29117 0 0)
(1.28775 0 0)
(1.28442 0 0)
(1.2812 0 0)
(1.27807 0 0)
(1.27503 0 0)
(1.27208 0 0)
(1.26923 0 0)
(1.26646 0 0)
(1.26378 0 0)
(1.26119 0 0)
(1.25867 0 0)
(1.25624 0 0)
(1.25389 0 0)
(1.25161 0 0)
(1.24942 0 0)
(1.2473 0 0)
(1.24525 0 0)
(1.24327 0 0)
(1.24137 0 0)
(1.23953 0 0)
(1.23776 0 0)
(1.23606 0 0)
(1.23443 0 0)
(1.23286 0 0)
(1.23135 0 0)
(1.22991 0 0)
(1.22853 0 0)
(1.2272 0 0)
(1.22594 0 0)
(1.22473 0 0)
(1.22359 0 0)
(1.22249 0 0)
(1.22145 0 0)
(1.22047 0 0)
(1.21954 0 0)
(1.21866 0 0)
(1.21783 0 0)
(1.21705 0 0)
(1.21632 0 0)
(1.21564 0 0)
(1.21501 0 0)
(1.21442 0 0)
(1.21388 0 0)
(1.21339 0 0)
(1.21294 0 0)
(1.21253 0 0)
(1.21217 0 0)
(1.21185 0 0)
(1.21157 0 0)
(1.21133 0 0)
(1.21113 0 0)
(1.21097 0 0)
(1.21086 0 0)
(1.21078 0 0)
(1.21073 0 0)
(1.21073 0 0)
(1.21076 0 0)
(1.21083 0 0)
(1.21093 0 0)
(1.21107 0 0)
(1.21124 0 0)
(1.21145 0 0)
(1.21169 0 0)
(1.21196 0 0)
(1.21227 0 0)
(1.21261 0 0)
(1.21298 0 0)
(1.21337 0 0)
(1.21381 0 0)
(1.21415 0.0173391 0)
(1.21377 0.0346747 0)
(1.21316 0.0520033 0)
(1.21229 0.0693212 0)
(1.21118 0.086625 0)
(1.20981 0.103911 0)
(1.20821 0.121176 0)
(1.20635 0.138416 0)
(1.20425 0.155628 0)
(1.20191 0.172809 0)
(1.19932 0.189954 0)
(1.19648 0.20706 0)
(1.19341 0.224124 0)
(1.19008 0.241142 0)
(1.18652 0.258111 0)
(1.18271 0.275028 0)
(1.17866 0.291889 0)
(1.17438 0.308689 0)
(1.16985 0.325428 0)
(1.16508 0.342099 0)
(1.16008 0.358701 0)
(1.15484 0.37523 0)
(1.14936 0.391682 0)
(1.14365 0.408054 0)
(1.13771 0.424344 0)
(1.13153 0.440546 0)
(1.12513 0.456659 0)
(1.11849 0.472679 0)
(1.11163 0.488602 0)
(1.10454 0.504426 0)
(1.09722 0.520146 0)
(1.08968 0.535761 0)
(1.08192 0.551267 0)
(1.07394 0.56666 0)
(1.06574 0.581937 0)
(1.05732 0.597096 0)
(1.04869 0.612133 0)
(1.03984 0.627046 0)
(1.03078 0.64183 0)
(1.02151 0.656483 0)
(1.01203 0.671003 0)
(1.00235 0.685386 0)
(0.992456 0.699629 0)
(0.982364 0.71373 0)
(0.972073 0.727684 0)
(0.961583 0.741491 0)
(0.950896 0.755146 0)
(0.940016 0.768648 0)
(0.928945 0.781992 0)
(0.917683 0.795177 0)
(0.906235 0.8082 0)
(0.894602 0.821058 0)
(0.882787 0.833749 0)
(0.870791 0.84627 0)
(0.858618 0.858618 0)
(0.84627 0.870791 0)
(0.833749 0.882787 0)
(0.821058 0.894602 0)
(0.8082 0.906235 0)
(0.795177 0.917683 0)
(0.781992 0.928945 0)
(0.768648 0.940016 0)
(0.755146 0.950896 0)
(0.741491 0.961583 0)
(0.727684 0.972073 0)
(0.71373 0.982364 0)
(0.699629 0.992456 0)
(0.685386 1.00235 0)
(0.671003 1.01203 0)
(0.656483 1.02151 0)
(0.64183 1.03078 0)
(0.627046 1.03984 0)
(0.612133 1.04869 0)
(0.597096 1.05732 0)
(0.581937 1.06574 0)
(0.56666 1.07394 0)
(0.551267 1.08192 0)
(0.535761 1.08968 0)
(0.520146 1.09722 0)
(0.504426 1.10454 0)
(0.488602 1.11163 0)
(0.472679 1.11849 0)
(0.456659 1.12513 0)
(0.440546 1.13153 0)
(0.424344 1.13771 0)
(0.408054 1.14365 0)
(0.391682 1.14936 0)
(0.37523 1.15484 0)
(0.358701 1.16008 0)
(0.342099 1.16508 0)
(0.325428 1.16985 0)
(0.308689 1.17438 0)
(0.291889 1.17866 0)
(0.275028 1.18271 0)
(0.258111 1.18652 0)
(0.241142 1.19008 0)
(0.224124 1.19341 0)
(0.20706 1.19648 0)
(0.189954 1.19932 0)
(0.172809 1.20191 0)
(0.155628 1.20425 0)
(0.138416 1.20635 0)
(0.121176 1.20821 0)
(0.103911 1.20981 0)
(0.086625 1.21118 0)
(0.0693212 1.21229 0)
(0.0520033 1.21316 0)
(0.0346747 1.21377 0)
(0.0173391 1.21415 0)
(0 1.21381 0)
(0 1.21337 0)
(0 1.21298 0)
(0 1.21261 0)
(0 1.21227 0)
(0 1.21196 0)
(0 1.21169 0)
(0 1.21145 0)
(0 1.21124 0)
(0 1.21107 0)
(0 1.21093 0)
(0 1.21083 0)
(0 1.21076 0)
(0 1.21073 0)
(0 1.21073 0)
(0 1.21078 0)
(0 1.21086 0)
(0 1.21097 0)
(0 1.21113 0)
(0 1.21133 0)
(0 1.21157 0)
(0 1.21185 0)
(0 1.21217 0)
(0 1.21253 0)
(0 1.21294 0)
(0 1.21339 0)
(0 1.21388 0)
(0 1.21442 0)
(0 1.21501 0)
(0 1.21564 0)
(0 1.21632 0)
(0 1.21705 0)
(0 1.21783 0)
(0 1.21866 0)
(0 1.21954 0)
(0 1.22047 0)
(0 1.22145 0)
(0 1.22249 0)
(0 1.22359 0)
(0 1.22473 0)
(0 1.22594 0)
(0 1.2272 0)
(0 1.22853 0)
(0 1.22991 0)
(0 1.23135 0)
(0 1.23286 0)
(0 1.23443 0)
(0 1.23606 0)
(0 1.23776 0)
(0 1.23953 0)
(0 1.24137 0)
(0 1.24327 0)
(0 1.24525 0)
(0 1.2473 0)
(0 1.24942 0)
(0 1.25161 0)
(0 1.25389 0)
(0 1.25624 0)
(0 1.25867 0)
(0 1.26119 0)
(0 1.26378 0)
(0 1.26646 0)
(0 1.26923 0)
(0 1.27208 0)
(0 1.27503 0)
(0 1.27807 0)
(0 1.2812 0)
(0 1.28442 0)
(0 1.28775 0)
(0 1.29117 0)
(0 1.2947 0)
(0 1.29833 0)
(0 1.30206 0)
(0 1.30591 0)
(0 1.30986 0)
(0 1.31393 0)
(0 1.31811 0)
(0 1.32242 0)
(0 1.32684 0)
(0 1.33139 0)
(0 1.33606 0)
(0 1.34086 0)
(0 1.3458 0)
(0 1.35087 0)
(0 1.35608 0)
(0 1.36143 0)
(0 1.36692 0)
(0 1.37257 0)
(0 1.37836 0)
(0 1.38431 0)
(0 1.39042 0)
(0 1.39669 0)
(0 1.40313 0)
(0 1.40974 0)
(0 1.41652 0)
(0 1.42348 0)
(0 1.43063 0)
(0 1.43796 0)
(0 1.44549 0)
(0 1.45321 0)
(0 1.46113 0)
(0 1.46926 0)
(0 1.4776 0)
(0 1.48616 0)
(0 1.49495 0)
(0 1.50396 0)
(0 1.5132 0)
(0 1.52269 0)
(0 1.53242 0)
(0 1.54241 0)
(0 1.55265 0)
(0 1.56317 0)
(0 1.57395 0)
(0 1.58503 0)
(0 1.59635 0)
(0 1.60805 0)
(0.023133 1.61985 0)
(0.0462613 1.61936 0)
(0.0693801 1.61853 0)
(0.0924848 1.61737 0)
(0.115571 1.61589 0)
(0.138633 1.61407 0)
(0.161667 1.61193 0)
(0.184668 1.60946 0)
(0.207631 1.60666 0)
(0.230552 1.60353 0)
(0.253426 1.60007 0)
(0.276249 1.59629 0)
(0.299015 1.59218 0)
(0.32172 1.58775 0)
(0.344359 1.58299 0)
(0.366928 1.57792 0)
(0.389423 1.57251 0)
(0.411838 1.56679 0)
(0.434169 1.56075 0)
(0.456411 1.55439 0)
(0.478561 1.54772 0)
(0.500613 1.54073 0)
(0.522562 1.53342 0)
(0.544406 1.5258 0)
(0.566138 1.51787 0)
(0.587754 1.50963 0)
(0.609251 1.50109 0)
(0.630624 1.49224 0)
(0.651868 1.48308 0)
(0.672979 1.47362 0)
(0.693953 1.46386 0)
(0.714785 1.4538 0)
(0.735472 1.44345 0)
(0.756009 1.4328 0)
(0.776391 1.42185 0)
(0.796615 1.41062 0)
(0.816677 1.3991 0)
(0.836572 1.3873 0)
(0.856297 1.37521 0)
(0.875847 1.36284 0)
(0.895218 1.3502 0)
(0.914407 1.33728 0)
(0.93341 1.32408 0)
(0.952222 1.31062 0)
(0.97084 1.29689 0)
(0.98926 1.28289 0)
(1.00748 1.26864 0)
(1.02549 1.25412 0)
(1.04329 1.23935 0)
(1.06089 1.22433 0)
(1.07826 1.20905 0)
(1.09541 1.19353 0)
(1.11235 1.17777 0)
(1.12905 1.16177 0)
(1.14552 1.14552 0)
(1.16177 1.12905 0)
(1.17777 1.11235 0)
(1.19353 1.09541 0)
(1.20905 1.07826 0)
(1.22433 1.06089 0)
(1.23935 1.04329 0)
(1.25412 1.02549 0)
(1.26864 1.00748 0)
(1.28289 0.98926 0)
(1.29689 0.97084 0)
(1.31062 0.952222 0)
(1.32408 0.93341 0)
(1.33728 0.914407 0)
(1.3502 0.895218 0)
(1.36284 0.875847 0)
(1.37521 0.856297 0)
(1.3873 0.836572 0)
(1.3991 0.816677 0)
(1.41062 0.796615 0)
(1.42185 0.776391 0)
(1.4328 0.756009 0)
(1.44345 0.735472 0)
(1.4538 0.714785 0)
(1.46386 0.693953 0)
(1.47362 0.672979 0)
(1.48308 0.651868 0)
(1.49224 0.630624 0)
(1.50109 0.609251 0)
(1.50963 0.587754 0)
(1.51787 0.566138 0)
(1.5258 0.544405 0)
(1.53342 0.522562 0)
(1.54073 0.500613 0)
(1.54772 0.478561 0)
(1.55439 0.456411 0)
(1.56075 0.434169 0)
(1.56679 0.411838 0)
(1.57251 0.389423 0)
(1.57792 0.366928 0)
(1.58299 0.344359 0)
(1.58775 0.32172 0)
(1.59218 0.299015 0)
(1.59629 0.276249 0)
(1.60007 0.253426 0)
(1.60353 0.230552 0)
(1.60666 0.207631 0)
(1.60946 0.184668 0)
(1.61193 0.161667 0)
(1.61407 0.138633 0)
(1.61589 0.115571 0)
(1.61737 0.0924848 0)
(1.61853 0.0693801 0)
(1.61936 0.0462613 0)
(1.61985 0.023133 0)
(1.60789 0.0229621 0)
(1.6074 0.0459196 0)
(1.60658 0.0688677 0)
(1.60543 0.0918017 0)
(1.60395 0.114717 0)
(1.60215 0.137609 0)
(1.60002 0.160473 0)
(1.59757 0.183304 0)
(1.59479 0.206098 0)
(1.59168 0.228849 0)
(1.58825 0.251555 0)
(1.5845 0.274208 0)
(1.58042 0.296806 0)
(1.57602 0.319344 0)
(1.5713 0.341816 0)
(1.56626 0.364218 0)
(1.5609 0.386547 0)
(1.55522 0.408796 0)
(1.54923 0.430962 0)
(1.54291 0.45304 0)
(1.53629 0.475026 0)
(1.52935 0.496915 0)
(1.5221 0.518703 0)
(1.51453 0.540384 0)
(1.50666 0.561956 0)
(1.49848 0.583413 0)
(1.49 0.604751 0)
(1.48121 0.625966 0)
(1.47212 0.647053 0)
(1.46273 0.668008 0)
(1.45305 0.688827 0)
(1.44306 0.709506 0)
(1.43278 0.73004 0)
(1.42221 0.750425 0)
(1.41135 0.770657 0)
(1.4002 0.790732 0)
(1.38877 0.810645 0)
(1.37705 0.830393 0)
(1.36505 0.849972 0)
(1.35278 0.869378 0)
(1.34023 0.888606 0)
(1.3274 0.907653 0)
(1.3143 0.926515 0)
(1.30094 0.945189 0)
(1.28731 0.963669 0)
(1.27342 0.981953 0)
(1.25927 1.00004 0)
(1.24486 1.01792 0)
(1.2302 1.03559 0)
(1.21528 1.05305 0)
(1.20012 1.0703 0)
(1.18472 1.08732 0)
(1.16907 1.10413 0)
(1.15318 1.12071 0)
(1.13706 1.13706 0)
(1.12071 1.15318 0)
(1.10413 1.16907 0)
(1.08732 1.18472 0)
(1.0703 1.20012 0)
(1.05305 1.21528 0)
(1.03559 1.2302 0)
(1.01792 1.24486 0)
(1.00004 1.25927 0)
(0.981953 1.27342 0)
(0.963669 1.28731 0)
(0.945189 1.30094 0)
(0.926515 1.3143 0)
(0.907653 1.3274 0)
(0.888606 1.34023 0)
(0.869378 1.35278 0)
(0.849972 1.36505 0)
(0.830393 1.37705 0)
(0.810645 1.38877 0)
(0.790732 1.4002 0)
(0.770657 1.41135 0)
(0.750425 1.42221 0)
(0.73004 1.43278 0)
(0.709506 1.44306 0)
(0.688827 1.45305 0)
(0.668008 1.46273 0)
(0.647053 1.47212 0)
(0.625966 1.48121 0)
(0.604751 1.49 0)
(0.583413 1.49848 0)
(0.561956 1.50666 0)
(0.540384 1.51453 0)
(0.518703 1.5221 0)
(0.496915 1.52935 0)
(0.475026 1.53629 0)
(0.45304 1.54291 0)
(0.430962 1.54923 0)
(0.408796 1.55522 0)
(0.386547 1.5609 0)
(0.364218 1.56626 0)
(0.341816 1.5713 0)
(0.319344 1.57602 0)
(0.296806 1.58042 0)
(0.274208 1.5845 0)
(0.251555 1.58825 0)
(0.228849 1.59168 0)
(0.206098 1.59479 0)
(0.183304 1.59757 0)
(0.160473 1.60002 0)
(0.137609 1.60215 0)
(0.114717 1.60395 0)
(0.0918017 1.60543 0)
(0.0688677 1.60658 0)
(0.0459196 1.6074 0)
(0.0229621 1.60789 0)
(1.59619 0.0227951 0)
(1.5957 0.0455855 0)
(1.59489 0.0683666 0)
(1.59375 0.0911338 0)
(1.59228 0.113882 0)
(1.5905 0.136608 0)
(1.58838 0.159305 0)
(1.58595 0.18197 0)
(1.58319 0.204598 0)
(1.5801 0.227185 0)
(1.5767 0.249724 0)
(1.57297 0.272213 0)
(1.56892 0.294647 0)
(1.56456 0.31702 0)
(1.55987 0.339329 0)
(1.55487 0.361569 0)
(1.54954 0.383734 0)
(1.54391 0.405822 0)
(1.53795 0.427827 0)
(1.53169 0.449744 0)
(1.52511 0.47157 0)
(1.51822 0.4933 0)
(1.51102 0.514929 0)
(1.50351 0.536453 0)
(1.4957 0.557868 0)
(1.48758 0.579169 0)
(1.47916 0.600352 0)
(1.47044 0.621412 0)
(1.46141 0.642346 0)
(1.45209 0.663149 0)
(1.44248 0.683816 0)
(1.43256 0.704344 0)
(1.42236 0.724729 0)
(1.41187 0.744965 0)
(1.40108 0.76505 0)
(1.39002 0.784979 0)
(1.37867 0.804747 0)
(1.36703 0.824352 0)
(1.35512 0.843789 0)
(1.34294 0.863053 0)
(1.33048 0.882141 0)
(1.31774 0.90105 0)
(1.30474 0.919775 0)
(1.29148 0.938312 0)
(1.27795 0.956658 0)
(1.26415 0.974809 0)
(1.25011 0.992761 0)
(1.2358 1.01051 0)
(1.22125 1.02805 0)
(1.20644 1.04539 0)
(1.19139 1.06251 0)
(1.1761 1.07941 0)
(1.16056 1.0961 0)
(1.14479 1.11256 0)
(1.12879 1.12879 0)
(1.11256 1.14479 0)
(1.0961 1.16056 0)
(1.07941 1.1761 0)
(1.06251 1.19139 0)
(1.04539 1.20644 0)
(1.02805 1.22125 0)
(1.01051 1.2358 0)
(0.992761 1.25011 0)
(0.974809 1.26415 0)
(0.956658 1.27795 0)
(0.938312 1.29148 0)
(0.919775 1.30474 0)
(0.90105 1.31774 0)
(0.882141 1.33048 0)
(0.863053 1.34294 0)
(0.843789 1.35512 0)
(0.824352 1.36703 0)
(0.804747 1.37867 0)
(0.784979 1.39002 0)
(0.76505 1.40108 0)
(0.744965 1.41187 0)
(0.724729 1.42236 0)
(0.704344 1.43256 0)
(0.683816 1.44248 0)
(0.663149 1.45209 0)
(0.642346 1.46141 0)
(0.621412 1.47044 0)
(0.600352 1.47916 0)
(0.579169 1.48758 0)
(0.557868 1.4957 0)
(0.536453 1.50351 0)
(0.514929 1.51102 0)
(0.4933 1.51822 0)
(0.47157 1.52511 0)
(0.449744 1.53169 0)
(0.427827 1.53795 0)
(0.405822 1.54391 0)
(0.383734 1.54954 0)
(0.361569 1.55487 0)
(0.339329 1.55987 0)
(0.31702 1.56456 0)
(0.294647 1.56892 0)
(0.272213 1.57297 0)
(0.249724 1.5767 0)
(0.227185 1.5801 0)
(0.204598 1.58319 0)
(0.18197 1.58595 0)
(0.159305 1.58838 0)
(0.136608 1.5905 0)
(0.113882 1.59228 0)
(0.0911338 1.59375 0)
(0.0683666 1.59489 0)
(0.0455855 1.5957 0)
(0.0227951 1.59619 0)
(1.58487 0.0226334 0)
(1.58438 0.0452621 0)
(1.58357 0.0678817 0)
(1.58244 0.0904873 0)
(1.58099 0.113075 0)
(1.57921 0.135639 0)
(1.57712 0.158175 0)
(1.5747 0.18068 0)
(1.57196 0.203147 0)
(1.56889 0.225573 0)
(1.56551 0.247953 0)
(1.56181 0.270282 0)
(1.55779 0.292557 0)
(1.55346 0.314771 0)
(1.5488 0.336922 0)
(1.54384 0.359004 0)
(1.53855 0.381012 0)
(1.53295 0.402943 0)
(1.52704 0.424792 0)
(1.52082 0.446554 0)
(1.51429 0.468225 0)
(1.50745 0.4898 0)
(1.5003 0.511276 0)
(1.49285 0.532648 0)
(1.48509 0.55391 0)
(1.47703 0.57506 0)
(1.46867 0.596093 0)
(1.46001 0.617004 0)
(1.45105 0.637789 0)
(1.44179 0.658444 0)
(1.43224 0.678965 0)
(1.4224 0.699348 0)
(1.41227 0.719587 0)
(1.40185 0.739681 0)
(1.39115 0.759623 0)
(1.38016 0.77941 0)
(1.36889 0.799039 0)
(1.35734 0.818504 0)
(1.34551 0.837803 0)
(1.33341 0.856931 0)
(1.32104 0.875884 0)
(1.3084 0.894658 0)
(1.29549 0.91325 0)
(1.28231 0.931656 0)
(1.26888 0.949872 0)
(1.25519 0.967894 0)
(1.24124 0.985719 0)
(1.22704 1.00334 0)
(1.21258 1.02076 0)
(1.19788 1.03797 0)
(1.18294 1.05497 0)
(1.16776 1.07176 0)
(1.15233 1.08832 0)
(1.13667 1.10467 0)
(1.12078 1.12078 0)
(1.10467 1.13667 0)
(1.08832 1.15233 0)
(1.07176 1.16776 0)
(1.05497 1.18294 0)
(1.03797 1.19788 0)
(1.02076 1.21258 0)
(1.00334 1.22704 0)
(0.985719 1.24124 0)
(0.967894 1.25519 0)
(0.949872 1.26888 0)
(0.931656 1.28231 0)
(0.91325 1.29549 0)
(0.894658 1.3084 0)
(0.875884 1.32104 0)
(0.856931 1.33341 0)
(0.837803 1.34551 0)
(0.818504 1.35734 0)
(0.799039 1.36889 0)
(0.77941 1.38016 0)
(0.759623 1.39115 0)
(0.739681 1.40185 0)
(0.719587 1.41227 0)
(0.699348 1.4224 0)
(0.678965 1.43224 0)
(0.658444 1.44179 0)
(0.637789 1.45105 0)
(0.617004 1.46001 0)
(0.596093 1.46867 0)
(0.57506 1.47703 0)
(0.55391 1.48509 0)
(0.532648 1.49285 0)
(0.511276 1.5003 0)
(0.4898 1.50745 0)
(0.468225 1.51429 0)
(0.446554 1.52082 0)
(0.424792 1.52704 0)
(0.402943 1.53295 0)
(0.381012 1.53855 0)
(0.359004 1.54384 0)
(0.336922 1.5488 0)
(0.314771 1.55346 0)
(0.292557 1.55779 0)
(0.270282 1.56181 0)
(0.247953 1.56551 0)
(0.225573 1.56889 0)
(0.203147 1.57196 0)
(0.18068 1.5747 0)
(0.158175 1.57712 0)
(0.135639 1.57921 0)
(0.113075 1.58099 0)
(0.0904873 1.58244 0)
(0.0678817 1.58357 0)
(0.0452621 1.58438 0)
(0.0226334 1.58487 0)
(1.57379 0.0224751 0)
(1.57331 0.0449457 0)
(1.5725 0.0674071 0)
(1.57138 0.0898548 0)
(1.56994 0.112284 0)
(1.56817 0.134691 0)
(1.56609 0.157069 0)
(1.56369 0.179416 0)
(1.56097 0.201727 0)
(1.55793 0.223996 0)
(1.55457 0.24622 0)
(1.55089 0.268393 0)
(1.5469 0.290511 0)
(1.5426 0.312571 0)
(1.53798 0.334566 0)
(1.53304 0.356494 0)
(1.5278 0.378349 0)
(1.52224 0.400126 0)
(1.51637 0.421822 0)
(1.51019 0.443432 0)
(1.50371 0.464952 0)
(1.49691 0.486376 0)
(1.48981 0.507702 0)
(1.48241 0.528924 0)
(1.47471 0.550038 0)
(1.4667 0.57104 0)
(1.4584 0.591926 0)
(1.4498 0.61269 0)
(1.4409 0.63333 0)
(1.43171 0.653841 0)
(1.42223 0.674219 0)
(1.41246 0.694459 0)
(1.4024 0.714557 0)
(1.39205 0.73451 0)
(1.38142 0.754312 0)
(1.37051 0.773962 0)
(1.35932 0.793453 0)
(1.34785 0.812782 0)
(1.3361 0.831946 0)
(1.32409 0.85094 0)
(1.3118 0.869761 0)
(1.29925 0.888404 0)
(1.28643 0.906866 0)
(1.27335 0.925143 0)
(1.26001 0.943231 0)
(1.24641 0.961127 0)
(1.23256 0.978827 0)
(1.21846 0.996328 0)
(1.20411 1.01363 0)
(1.18951 1.03072 0)
(1.17467 1.0476 0)
(1.15959 1.06426 0)
(1.14428 1.08071 0)
(1.12873 1.09694 0)
(1.11295 1.11295 0)
(1.09694 1.12873 0)
(1.08071 1.14428 0)
(1.06426 1.15959 0)
(1.0476 1.17467 0)
(1.03072 1.18951 0)
(1.01363 1.20411 0)
(0.996328 1.21846 0)
(0.978827 1.23256 0)
(0.961127 1.24641 0)
(0.943231 1.26001 0)
(0.925143 1.27335 0)
(0.906866 1.28643 0)
(0.888404 1.29925 0)
(0.869761 1.3118 0)
(0.85094 1.32409 0)
(0.831946 1.3361 0)
(0.812782 1.34785 0)
(0.793453 1.35932 0)
(0.773962 1.37051 0)
(0.754312 1.38142 0)
(0.73451 1.39205 0)
(0.714557 1.4024 0)
(0.694459 1.41246 0)
(0.674219 1.42223 0)
(0.653841 1.43171 0)
(0.63333 1.4409 0)
(0.61269 1.4498 0)
(0.591926 1.4584 0)
(0.57104 1.4667 0)
(0.550038 1.47471 0)
(0.528924 1.48241 0)
(0.507702 1.48981 0)
(0.486376 1.49691 0)
(0.464952 1.50371 0)
(0.443432 1.51019 0)
(0.421822 1.51637 0)
(0.400126 1.52224 0)
(0.378349 1.5278 0)
(0.356494 1.53304 0)
(0.334566 1.53798 0)
(0.312571 1.5426 0)
(0.290511 1.5469 0)
(0.268393 1.55089 0)
(0.24622 1.55457 0)
(0.223996 1.55793 0)
(0.201727 1.56097 0)
(0.179416 1.56369 0)
(0.157069 1.56609 0)
(0.134691 1.56817 0)
(0.112284 1.56994 0)
(0.0898548 1.57138 0)
(0.0674071 1.5725 0)
(0.0449457 1.57331 0)
(0.0224751 1.57379 0)
(1.56301 0.0223213 0)
(1.56253 0.044638 0)
(1.56174 0.0669456 0)
(1.56062 0.0892396 0)
(1.55919 0.111515 0)
(1.55744 0.133768 0)
(1.55537 0.155994 0)
(1.55298 0.178188 0)
(1.55028 0.200346 0)
(1.54726 0.222462 0)
(1.54393 0.244534 0)
(1.54028 0.266555 0)
(1.53631 0.288522 0)
(1.53204 0.310431 0)
(1.52745 0.332276 0)
(1.52255 0.354053 0)
(1.51734 0.375758 0)
(1.51182 0.397387 0)
(1.50599 0.418934 0)
(1.49985 0.440396 0)
(1.49341 0.461768 0)
(1.48666 0.483046 0)
(1.47961 0.504226 0)
(1.47226 0.525303 0)
(1.46461 0.546272 0)
(1.45666 0.56713 0)
(1.44842 0.587873 0)
(1.43987 0.608496 0)
(1.43104 0.628994 0)
(1.42191 0.649365 0)
(1.41249 0.669603 0)
(1.40279 0.689704 0)
(1.3928 0.709665 0)
(1.38252 0.729481 0)
(1.37196 0.749148 0)
(1.36112 0.768663 0)
(1.35001 0.78802 0)
(1.33862 0.807217 0)
(1.32696 0.82625 0)
(1.31502 0.845114 0)
(1.30282 0.863806 0)
(1.29035 0.882321 0)
(1.27762 0.900657 0)
(1.26463 0.918809 0)
(1.25138 0.936773 0)
(1.23788 0.954547 0)
(1.22412 0.972126 0)
(1.21012 0.989507 0)
(1.19586 1.00669 0)
(1.18137 1.02366 0)
(1.16663 1.04042 0)
(1.15165 1.05698 0)
(1.13644 1.07331 0)
(1.121 1.08943 0)
(1.10533 1.10533 0)
(1.08943 1.121 0)
(1.07331 1.13644 0)
(1.05698 1.15165 0)
(1.04042 1.16663 0)
(1.02366 1.18137 0)
(1.00669 1.19586 0)
(0.989507 1.21012 0)
(0.972126 1.22412 0)
(0.954547 1.23788 0)
(0.936773 1.25138 0)
(0.918809 1.26463 0)
(0.900657 1.27762 0)
(0.882321 1.29035 0)
(0.863806 1.30282 0)
(0.845114 1.31502 0)
(0.82625 1.32696 0)
(0.807217 1.33862 0)
(0.78802 1.35001 0)
(0.768663 1.36112 0)
(0.749148 1.37196 0)
(0.729481 1.38252 0)
(0.709665 1.3928 0)
(0.689704 1.40279 0)
(0.669603 1.41249 0)
(0.649365 1.42191 0)
(0.628994 1.43104 0)
(0.608496 1.43987 0)
(0.587873 1.44842 0)
(0.56713 1.45666 0)
(0.546272 1.46461 0)
(0.525303 1.47226 0)
(0.504226 1.47961 0)
(0.483046 1.48666 0)
(0.461768 1.49341 0)
(0.440396 1.49985 0)
(0.418934 1.50599 0)
(0.397387 1.51182 0)
(0.375758 1.51734 0)
(0.354053 1.52255 0)
(0.332276 1.52745 0)
(0.310431 1.53204 0)
(0.288522 1.53631 0)
(0.266555 1.54028 0)
(0.244534 1.54393 0)
(0.222462 1.54726 0)
(0.200346 1.55028 0)
(0.178188 1.55298 0)
(0.155994 1.55537 0)
(0.133768 1.55744 0)
(0.111515 1.55919 0)
(0.0892396 1.56062 0)
(0.0669456 1.56174 0)
(0.044638 1.56253 0)
(0.0223213 1.56301 0)
(1.5525 0.0221711 0)
(1.55202 0.0443377 0)
(1.55123 0.0664952 0)
(1.55012 0.0886392 0)
(1.5487 0.110765 0)
(1.54696 0.132868 0)
(1.5449 0.154945 0)
(1.54253 0.176989 0)
(1.53985 0.198998 0)
(1.53685 0.220966 0)
(1.53354 0.242889 0)
(1.52991 0.264762 0)
(1.52598 0.286581 0)
(1.52173 0.308342 0)
(1.51717 0.33004 0)
(1.5123 0.351671 0)
(1.50713 0.37323 0)
(1.50164 0.394713 0)
(1.49586 0.416116 0)
(1.48976 0.437433 0)
(1.48336 0.458662 0)
(1.47666 0.479797 0)
(1.46966 0.500834 0)
(1.46236 0.521769 0)
(1.45476 0.542597 0)
(1.44686 0.563315 0)
(1.43867 0.583918 0)
(1.43019 0.604402 0)
(1.42141 0.624763 0)
(1.41234 0.644996 0)
(1.40299 0.665098 0)
(1.39335 0.685064 0)
(1.38343 0.70489 0)
(1.37322 0.724573 0)
(1.36273 0.744108 0)
(1.35197 0.763491 0)
(1.34093 0.782719 0)
(1.32961 0.801787 0)
(1.31803 0.820691 0)
(1.30618 0.839428 0)
(1.29406 0.857994 0)
(1.28167 0.876385 0)
(1.26903 0.894598 0)
(1.25612 0.912627 0)
(1.24296 0.930471 0)
(1.22955 0.948125 0)
(1.21589 0.965586 0)
(1.20197 0.98285 0)
(1.18782 0.999913 0)
(1.17342 1.01677 0)
(1.15878 1.03342 0)
(1.1439 1.04987 0)
(1.1288 1.06609 0)
(1.11346 1.0821 0)
(1.09789 1.09789 0)
(1.0821 1.11346 0)
(1.06609 1.1288 0)
(1.04987 1.1439 0)
(1.03342 1.15878 0)
(1.01677 1.17342 0)
(0.999913 1.18782 0)
(0.98285 1.20197 0)
(0.965586 1.21589 0)
(0.948125 1.22955 0)
(0.930471 1.24296 0)
(0.912627 1.25612 0)
(0.894598 1.26903 0)
(0.876385 1.28167 0)
(0.857994 1.29406 0)
(0.839428 1.30618 0)
(0.820691 1.31803 0)
(0.801787 1.32961 0)
(0.782719 1.34093 0)
(0.763491 1.35197 0)
(0.744108 1.36273 0)
(0.724573 1.37322 0)
(0.70489 1.38343 0)
(0.685064 1.39335 0)
(0.665098 1.40299 0)
(0.644996 1.41234 0)
(0.624763 1.42141 0)
(0.604402 1.43019 0)
(0.583918 1.43867 0)
(0.563315 1.44686 0)
(0.542597 1.45476 0)
(0.521769 1.46236 0)
(0.500834 1.46966 0)
(0.479797 1.47666 0)
(0.458662 1.48336 0)
(0.437433 1.48976 0)
(0.416116 1.49586 0)
(0.394713 1.50164 0)
(0.37323 1.50713 0)
(0.351671 1.5123 0)
(0.33004 1.51717 0)
(0.308342 1.52173 0)
(0.286581 1.52598 0)
(0.264762 1.52991 0)
(0.242889 1.53354 0)
(0.220966 1.53685 0)
(0.198998 1.53985 0)