/*--------------------------------*- C++ -*----------------------------------*\
| =========                 |                                                 |
| \\      /  F ield         | OpenFOAM: The Open Source CFD Toolbox           |
|  \\    /   O peration     | Version:  2312                                  |
|   \\  /    A nd           | Website:  www.openfoam.com                      |
|    \\/     M anipulation  |                                                 |
\*---------------------------------------------------------------------------*/
FoamFile
{
    version     2.0;
    format      ascii;
    arch        "LSB;label=32;scalar=64";
    class       volSymmTensorField;
    location    "50";
    object      sigma;
}
// * * * * * * * * * * * * * * * * * * * * * * * * * * * * * * * * * * * * * //

dimensions      [1 -1 -2 0 0 0 0];

internalField   nonuniform List<symmTensor> 
12870
(
(-4.90384e+07 -912163 5.9451e-12 7.87071e+07 -2.08445e-09 -6.08749e+06)
(-4.89863e+07 -2.73574e+06 -1.29079e-09 7.8655e+07 1.0148e-09 -6.08749e+06)
(-4.88822e+07 -4.55709e+06 1.84315e-09 7.85508e+07 2.15159e-09 -6.08749e+06)
(-4.8726e+07 -6.37473e+06 5.65316e-11 7.83947e+07 -1.04069e-09 -6.08749e+06)
(-4.85181e+07 -8.18716e+06 -7.06685e-10 7.81868e+07 9.98899e-10 -6.08749e+06)
(-4.82585e+07 -9.99292e+06 1.92177e-09 7.79271e+07 1.51247e-10 -6.08749e+06)
(-4.79474e+07 -1.17905e+07 -5.41722e-10 7.76161e+07 -1.09715e-09 -6.08749e+06)
(-4.75851e+07 -1.35785e+07 1.17674e-09 7.72538e+07 1.17474e-09 -6.08749e+06)
(-4.71719e+07 -1.53554e+07 -2.52387e-10 7.68406e+07 2.0691e-09 -6.08749e+06)
(-4.67081e+07 -1.71198e+07 1.13386e-09 7.63768e+07 1.20665e-09 -6.08749e+06)
(-4.61941e+07 -1.88702e+07 1.42788e-09 7.58628e+07 -8.38329e-10 -6.08749e+06)
(-4.56304e+07 -2.06053e+07 1.30958e-09 7.52991e+07 -4.00871e-09 -6.08749e+06)
(-4.50173e+07 -2.23235e+07 -2.51479e-09 7.4686e+07 -4.53717e-10 -6.08749e+06)
(-4.43554e+07 -2.40235e+07 -6.59909e-10 7.40241e+07 -1.28817e-10 -6.08749e+06)
(-4.36453e+07 -2.5704e+07 -1.02739e-09 7.3314e+07 -1.28079e-09 -6.08749e+06)
(-4.28874e+07 -2.73634e+07 -1.95038e-09 7.25561e+07 2.76595e-09 -6.08749e+06)
(-4.20825e+07 -2.90006e+07 -2.47646e-10 7.17512e+07 1.01238e-09 -6.08749e+06)
(-4.12311e+07 -3.06141e+07 6.25498e-10 7.08998e+07 1.59649e-10 -6.08749e+06)
(-4.03341e+07 -3.22026e+07 8.90981e-10 7.00027e+07 -8.38663e-10 -6.08749e+06)
(-3.9392e+07 -3.37649e+07 2.90776e-10 6.90607e+07 -1.00084e-09 -6.08749e+06)
(-3.84057e+07 -3.52996e+07 0 6.80744e+07 0 -6.08749e+06)
(-3.73759e+07 -3.68055e+07 -9.26081e-10 6.70446e+07 7.99735e-10 -6.08749e+06)
(-3.63036e+07 -3.82814e+07 -6.58264e-10 6.59723e+07 1.97777e-09 -6.08749e+06)
(-3.51896e+07 -3.97261e+07 9.40101e-10 6.48583e+07 -7.75907e-10 -6.08749e+06)
(-3.40348e+07 -4.11384e+07 1.16425e-10 6.37035e+07 -2.17637e-09 -6.08749e+06)
(-3.28401e+07 -4.25171e+07 4.72435e-10 6.25088e+07 2.41076e-09 -6.08749e+06)
(-3.16066e+07 -4.38612e+07 1.94494e-09 6.12752e+07 -1.46987e-09 -6.08749e+06)
(-3.03351e+07 -4.51695e+07 -3.7037e-10 6.00038e+07 -2.40959e-09 -6.08749e+06)
(-2.90268e+07 -4.64409e+07 -6.09238e-10 5.86955e+07 -2.62608e-10 -6.08749e+06)
(-2.76828e+07 -4.76745e+07 -2.59522e-09 5.73515e+07 1.12125e-09 -6.08749e+06)
(-2.6304e+07 -4.88691e+07 -6.04483e-10 5.59727e+07 4.31685e-09 -6.08749e+06)
(-2.48918e+07 -5.0024e+07 8.98269e-10 5.45604e+07 -1.88097e-09 -6.08749e+06)
(-2.34471e+07 -5.1138e+07 -9.87642e-11 5.31158e+07 -1.21494e-09 -6.08749e+06)
(-2.19712e+07 -5.22103e+07 -1.05682e-09 5.16398e+07 6.2599e-10 -6.08749e+06)
(-2.04652e+07 -5.324e+07 1.05778e-09 5.01339e+07 -6.15063e-10 -6.08749e+06)
(-1.89305e+07 -5.42263e+07 -5.44555e-11 4.85992e+07 -1.22239e-09 -6.08749e+06)
(-1.73682e+07 -5.51684e+07 1.03017e-09 4.70369e+07 -1.8121e-09 -6.08749e+06)
(-1.57797e+07 -5.60655e+07 -3.90534e-11 4.54484e+07 -2.44689e-09 -6.08749e+06)
(-1.41662e+07 -5.69168e+07 -3.28318e-09 4.38349e+07 4.32747e-10 -6.08749e+06)
(-1.25291e+07 -5.77218e+07 -3.31986e-09 4.21978e+07 2.83283e-09 -6.08749e+06)
(-1.08696e+07 -5.84796e+07 1.06616e-09 4.05383e+07 6.95987e-10 -6.08749e+06)
(-9.18919e+06 -5.91898e+07 1.48275e-11 3.88579e+07 9.98418e-12 -6.08749e+06)
(-7.48917e+06 -5.98517e+07 -1.35605e-10 3.71579e+07 2.44344e-09 -6.08749e+06)
(-5.77094e+06 -6.04647e+07 1.20586e-09 3.54396e+07 -1.70025e-09 -6.08749e+06)
(-4.0359e+06 -6.10285e+07 -5.05152e-10 3.37046e+07 -3.72554e-10 -6.08749e+06)
(-2.28547e+06 -6.15424e+07 -2.40126e-10 3.19542e+07 2.4354e-09 -6.08749e+06)
(-521083 -6.20062e+07 0 3.01898e+07 0 -6.08749e+06)
(1.25583e+06 -6.24194e+07 1.80361e-09 2.84129e+07 -1.22357e-09 -6.08749e+06)
(3.04382e+06 -6.27817e+07 2.66192e-09 2.66249e+07 -3.20837e-09 -6.08749e+06)
(4.84143e+06 -6.30928e+07 -1.12112e-10 2.48273e+07 -2.83697e-09 -6.08749e+06)
(6.64718e+06 -6.33524e+07 -1.45453e-09 2.30215e+07 -1.27865e-09 -6.08749e+06)
(8.45962e+06 -6.35604e+07 -3.52385e-09 2.12091e+07 1.02827e-09 -6.08749e+06)
(1.02772e+07 -6.37165e+07 -9.6098e-10 1.93914e+07 1.9533e-09 -6.08749e+06)
(1.20986e+07 -6.38206e+07 -9.25836e-10 1.75701e+07 -8.87e-10 -6.08749e+06)
(1.39222e+07 -6.38727e+07 -1.92308e-09 1.57465e+07 1.0312e-09 -6.08749e+06)
(1.57465e+07 -6.38727e+07 2.5456e-09 1.39222e+07 1.09766e-09 -6.08749e+06)
(1.75701e+07 -6.38206e+07 1.23664e-11 1.20986e+07 1.29078e-11 -6.08749e+06)
(1.93914e+07 -6.37165e+07 1.50732e-09 1.02773e+07 -1.44e-09 -6.08749e+06)
(2.12091e+07 -6.35604e+07 -1.27531e-09 8.45962e+06 -1.40961e-09 -6.08749e+06)
(2.30215e+07 -6.33524e+07 -7.30792e-10 6.64718e+06 2.32578e-09 -6.08749e+06)
(2.48273e+07 -6.30928e+07 -1.19725e-09 4.84143e+06 2.02977e-10 -6.08749e+06)
(2.66249e+07 -6.27817e+07 1.99356e-09 3.04382e+06 -8.61658e-10 -6.08749e+06)
(2.84129e+07 -6.24194e+07 -3.78438e-10 1.25583e+06 -2.1306e-09 -6.08749e+06)
(3.01898e+07 -6.20062e+07 -1.68039e-09 -521083 2.92609e-09 -6.08749e+06)
(3.19542e+07 -6.15424e+07 3.95951e-10 -2.28547e+06 5.21131e-10 -6.08749e+06)
(3.37046e+07 -6.10285e+07 -5.30503e-12 -4.0359e+06 -7.19316e-12 -6.08749e+06)
(3.54396e+07 -6.04647e+07 1.22583e-09 -5.77094e+06 -7.79732e-11 -6.08749e+06)
(3.71579e+07 -5.98517e+07 4.85378e-10 -7.48917e+06 -1.12834e-09 -6.08749e+06)
(3.88579e+07 -5.91898e+07 2.591e-09 -9.18919e+06 -1.75005e-09 -6.08749e+06)
(4.05383e+07 -5.84796e+07 -3.14231e-09 -1.08696e+07 -1.00039e-09 -6.08749e+06)
(4.21978e+07 -5.77218e+07 -1.43075e-09 -1.25291e+07 1.63727e-09 -6.08749e+06)
(4.38349e+07 -5.69168e+07 1.78194e-09 -1.41662e+07 -1.08149e-09 -6.08749e+06)
(4.54484e+07 -5.60655e+07 -1.12927e-09 -1.57797e+07 2.18168e-09 -6.08749e+06)
(4.70369e+07 -5.51684e+07 -9.105e-10 -1.73682e+07 5.07333e-10 -6.08749e+06)
(4.85992e+07 -5.42263e+07 1.82229e-09 -1.89305e+07 -1.012e-09 -6.08749e+06)
(5.01339e+07 -5.324e+07 6.15063e-10 -2.04652e+07 -1.05778e-09 -6.08749e+06)
(5.16398e+07 -5.22103e+07 -2.97173e-10 -2.19712e+07 -5.73082e-10 -6.08749e+06)
(5.31158e+07 -5.1138e+07 -9.29977e-10 -2.34471e+07 4.70511e-10 -6.08749e+06)
(5.45604e+07 -5.0024e+07 8.38174e-10 -2.48918e+07 1.73596e-09 -6.08749e+06)
(5.59727e+07 -4.88691e+07 3.77087e-12 -2.6304e+07 8.10342e-12 -6.08749e+06)
(5.73515e+07 -4.76745e+07 2.15887e-09 -2.76828e+07 -2.79546e-10 -6.08749e+06)
(5.86955e+07 -4.64409e+07 -2.41109e-09 -2.90268e+07 -3.27717e-10 -6.08749e+06)
(6.00038e+07 -4.51695e+07 7.24022e-10 -3.03351e+07 1.74794e-09 -6.08749e+06)
(6.12752e+07 -4.38612e+07 2.2015e-09 -3.16066e+07 -2.92571e-09 -6.08749e+06)
(6.25088e+07 -4.25171e+07 -1.95094e-09 -3.28401e+07 7.34009e-10 -6.08749e+06)
(6.37035e+07 -4.11384e+07 -9.77549e-10 -3.40348e+07 3.61434e-10 -6.08749e+06)
(6.48583e+07 -3.97261e+07 -1.75557e-09 -3.51896e+07 1.29598e-09 -6.08749e+06)
(6.59723e+07 -3.82814e+07 3.16346e-09 -3.63036e+07 -3.96082e-10 -6.08749e+06)
(6.70446e+07 -3.68055e+07 1.08047e-11 -3.73759e+07 3.40795e-11 -6.08749e+06)
(6.80744e+07 -3.52996e+07 -1.8172e-09 -3.84057e+07 1.19393e-09 -6.08749e+06)
(6.90607e+07 -3.37649e+07 -1.72532e-10 -3.9392e+07 -6.03497e-10 -6.08749e+06)
(7.00027e+07 -3.22026e+07 3.32461e-10 -4.03341e+07 1.22905e-09 -6.08749e+06)
(7.08998e+07 -3.06141e+07 4.03937e-09 -4.12311e+07 -1.03099e-09 -6.08749e+06)
(7.17512e+07 -2.90006e+07 -2.32198e-09 -4.20825e+07 -7.42753e-10 -6.08749e+06)
(7.25561e+07 -2.73634e+07 -4.07109e-09 -4.28874e+07 8.9778e-10 -6.08749e+06)
(7.3314e+07 -2.5704e+07 2.56893e-09 -4.36453e+07 2.08977e-09 -6.08749e+06)
(7.40241e+07 -2.40235e+07 9.018e-10 -4.43554e+07 -8.20109e-10 -6.08749e+06)
(7.4686e+07 -2.23235e+07 -2.05132e-09 -4.50173e+07 3.70098e-10 -6.08749e+06)
(7.52991e+07 -2.06053e+07 1.13154e-09 -4.56304e+07 4.53254e-10 -6.08749e+06)
(7.58628e+07 -1.88702e+07 4.02566e-09 -4.61941e+07 -1.26105e-09 -6.08749e+06)
(7.63768e+07 -1.71198e+07 -1.02962e-09 -4.67081e+07 1.63093e-10 -6.08749e+06)
(7.68406e+07 -1.53554e+07 -3.18344e-09 -4.71719e+07 -2.75528e-10 -6.08749e+06)
(7.72538e+07 -1.35785e+07 0 -4.75851e+07 0 -6.08749e+06)
(7.76161e+07 -1.17905e+07 1.03732e-09 -4.79474e+07 -1.01049e-10 -6.08749e+06)
(7.79271e+07 -9.99292e+06 3.11666e-09 -4.82585e+07 -2.49769e-10 -6.08749e+06)
(7.81868e+07 -8.18716e+06 -1.12154e-09 -4.85181e+07 -1.19921e-09 -6.08749e+06)
(7.83947e+07 -6.37473e+06 -2.05047e-09 -4.8726e+07 7.31027e-10 -6.08749e+06)
(7.85508e+07 -4.55709e+06 3.1245e-09 -4.88822e+07 -1.16064e-10 -6.08749e+06)
(7.8655e+07 -2.73574e+06 -2.72703e-11 -4.89863e+07 -1.27293e-09 -6.08749e+06)
(7.87071e+07 -912163 -2.08445e-09 -4.90384e+07 5.9451e-12 -6.08749e+06)
(-4.80714e+07 -894297 -6.41861e-10 7.71721e+07 -4.58295e-12 -5.90271e+06)
(-4.80203e+07 -2.68216e+06 -1.23704e-09 7.7121e+07 -2.04513e-09 -5.90271e+06)
(-4.79182e+07 -4.46784e+06 -4.73427e-13 7.70189e+07 -1.69018e-14 -5.90271e+06)
(-4.77651e+07 -6.24987e+06 -1.55554e-10 7.68659e+07 3.02326e-09 -5.90271e+06)
(-4.75612e+07 -8.02681e+06 -1.16285e-09 7.6662e+07 -2.09717e-09 -5.90271e+06)
(-4.73067e+07 -9.7972e+06 6.48042e-10 7.64074e+07 5.1002e-11 -5.90271e+06)
(-4.70017e+07 -1.15596e+07 -1.99212e-11 7.61024e+07 -1.85439e-12 -5.90271e+06)
(-4.66465e+07 -1.33126e+07 1.40072e-11 7.57472e+07 1.50594e-12 -5.90271e+06)
(-4.62414e+07 -1.50547e+07 -8.98676e-10 7.53421e+07 1.92351e-09 -5.90271e+06)
(-4.57867e+07 -1.67845e+07 7.65004e-10 7.48874e+07 -9.14019e-10 -5.90271e+06)
(-4.52828e+07 -1.85007e+07 -1.1706e-11 7.43835e+07 -1.76847e-12 -5.90271e+06)
(-4.47301e+07 -2.02017e+07 1.57248e-09 7.38308e+07 2.30627e-09 -5.90271e+06)
(-4.4129e+07 -2.18863e+07 -1.60689e-09 7.32298e+07 1.76084e-09 -5.90271e+06)
(-4.34801e+07 -2.3553e+07 -2.46003e-10 7.25809e+07 -2.10428e-09 -5.90271e+06)
(-4.27839e+07 -2.52005e+07 -1.856e-09 7.18846e+07 -3.8989e-10 -5.90271e+06)
(-4.20408e+07 -2.68275e+07 -2.22628e-10 7.11416e+07 9.8422e-10 -5.90271e+06)
(-4.12517e+07 -2.84326e+07 4.71132e-10 7.03524e+07 -1.96241e-09 -5.90271e+06)
(-4.0417e+07 -3.00145e+07 8.69943e-10 6.95178e+07 -8.19394e-10 -5.90271e+06)
(-3.95375e+07 -3.15719e+07 -6.25323e-10 6.86382e+07 -1.69151e-10 -5.90271e+06)
(-3.86139e+07 -3.31035e+07 -1.2343e-09 6.77146e+07 -3.52872e-10 -5.90271e+06)
(-3.76469e+07 -3.46082e+07 -2.8706e-10 6.67476e+07 9.67401e-10 -5.90271e+06)
(-3.66373e+07 -3.60846e+07 -1.52716e-09 6.57381e+07 5.74406e-10 -5.90271e+06)
(-3.5586e+07 -3.75316e+07 6.0903e-10 6.46868e+07 2.02705e-10 -5.90271e+06)
(-3.44938e+07 -3.8948e+07 6.00484e-10 6.35946e+07 2.09431e-10 -5.90271e+06)
(-3.33616e+07 -4.03326e+07 4.28027e-10 6.24624e+07 -3.06629e-09 -5.90271e+06)
(-3.21903e+07 -4.16844e+07 -2.31283e-10 6.12911e+07 -1.16804e-09 -5.90271e+06)
(-3.09809e+07 -4.30021e+07 -1.68184e-10 6.00817e+07 2.10496e-09 -5.90271e+06)
(-2.97344e+07 -4.42848e+07 -2.7433e-09 5.88351e+07 -4.40871e-11 -5.90271e+06)
(-2.84517e+07 -4.55313e+07 -9.87414e-10 5.75525e+07 6.73217e-10 -5.90271e+06)
(-2.7134e+07 -4.67407e+07 4.24887e-10 5.62348e+07 -9.1537e-10 -5.90271e+06)
(-2.57823e+07 -4.7912e+07 7.39195e-10 5.4883e+07 1.45697e-09 -5.90271e+06)
(-2.43976e+07 -4.90442e+07 7.05628e-10 5.34984e+07 1.46125e-09 -5.90271e+06)
(-2.29813e+07 -5.01364e+07 1.30214e-11 5.2082e+07 6.51804e-12 -5.90271e+06)
(-2.15343e+07 -5.11877e+07 4.58269e-10 5.0635e+07 -8.99049e-10 -5.90271e+06)
(-2.00578e+07 -5.21973e+07 4.83473e-10 4.91586e+07 -8.8575e-10 -5.90271e+06)
(-1.85532e+07 -5.31642e+07 -2.3804e-12 4.76539e+07 -1.32194e-12 -5.90271e+06)
(-1.70215e+07 -5.40879e+07 5.06208e-10 4.61223e+07 -8.72939e-10 -5.90271e+06)
(-1.54641e+07 -5.49674e+07 -2.11624e-09 4.45648e+07 1.09104e-09 -5.90271e+06)
(-1.38822e+07 -5.58021e+07 -2.13625e-09 4.29829e+07 1.05787e-09 -5.90271e+06)
(-1.22771e+07 -5.65912e+07 1.08166e-09 4.13779e+07 -1.70383e-09 -5.90271e+06)
(-1.06501e+07 -5.73342e+07 3.25048e-09 3.97509e+07 -2.88218e-10 -5.90271e+06)
(-9.00263e+06 -5.80305e+07 0 3.81034e+07 0 -5.90271e+06)
(-7.33591e+06 -5.86794e+07 -9.91298e-11 3.64367e+07 2.3881e-09 -5.90271e+06)
(-5.65133e+06 -5.92805e+07 -5.97822e-10 3.47521e+07 8.13035e-10 -5.90271e+06)
(-3.95027e+06 -5.98332e+07 1.20264e-09 3.3051e+07 -1.62071e-09 -5.90271e+06)
(-2.23413e+06 -6.03371e+07 -1.12067e-09 3.13349e+07 4.15834e-10 -5.90271e+06)
(-504298 -6.07918e+07 3.78891e-10 2.96051e+07 1.57785e-09 -5.90271e+06)
(1.23781e+06 -6.11969e+07 1.26173e-09 2.78629e+07 -1.57514e-09 -5.90271e+06)
(2.99078e+06 -6.15521e+07 -9.81329e-10 2.611e+07 -8.14189e-10 -5.90271e+06)
(4.75318e+06 -6.18571e+07 -6.4513e-10 2.43476e+07 7.7604e-10 -5.90271e+06)
(6.52357e+06 -6.21116e+07 -1.43292e-09 2.25772e+07 -1.25965e-09 -5.90271e+06)
(8.30051e+06 -6.23155e+07 -7.40997e-10 2.08002e+07 -2.03117e-09 -5.90271e+06)
(1.00825e+07 -6.24685e+07 -1.15224e-09 1.90182e+07 3.05956e-10 -5.90271e+06)
(1.18682e+07 -6.25707e+07 -2.32085e-09 1.72325e+07 5.71409e-10 -5.90271e+06)
(1.36561e+07 -6.26217e+07 2.82558e-09 1.54447e+07 -2.8824e-09 -5.90271e+06)
(1.54447e+07 -6.26217e+07 2.34004e-09 1.36561e+07 -5.01023e-10 -5.90271e+06)
(1.72325e+07 -6.25707e+07 -4.6908e-09 1.18682e+07 9.38363e-10 -5.90271e+06)
(1.90182e+07 -6.24685e+07 -3.0999e-10 1.00825e+07 1.14791e-09 -5.90271e+06)
(2.08002e+07 -6.23155e+07 -2.14049e-10 8.30051e+06 -3.24475e-09 -5.90271e+06)
(2.25772e+07 -6.21116e+07 8.45476e-10 6.52357e+06 9.61769e-10 -5.90271e+06)
(2.43476e+07 -6.18571e+07 -2.36451e-09 4.75318e+06 3.39022e-10 -5.90271e+06)
(2.611e+07 -6.15521e+07 1.22026e-09 2.99078e+06 1.47076e-09 -5.90271e+06)
(2.78629e+07 -6.11969e+07 3.74298e-10 1.23781e+06 -2.75189e-09 -5.90271e+06)
(2.96051e+07 -6.07918e+07 1.18562e-09 -504297 -1.22313e-10 -5.90271e+06)
(3.13349e+07 -6.03371e+07 -1.21698e-09 -2.23413e+06 1.73421e-09 -5.90271e+06)
(3.3051e+07 -5.98332e+07 1.51368e-09 -3.95027e+06 2.05242e-09 -5.90271e+06)
(3.47521e+07 -5.92805e+07 -3.66954e-10 -5.65133e+06 -5.12728e-10 -5.90271e+06)
(3.64367e+07 -5.86794e+07 -6.48176e-12 -7.33591e+06 -9.33551e-12 -5.90271e+06)
(3.81034e+07 -5.80305e+07 -7.07368e-10 -9.00263e+06 -1.05051e-09 -5.90271e+06)
(3.97509e+07 -5.73342e+07 -1.89174e-09 -1.06501e+07 -1.0519e-09 -5.90271e+06)
(4.13779e+07 -5.65912e+07 1.70237e-09 -1.22771e+07 -1.08396e-09 -5.90271e+06)
(4.29829e+07 -5.58021e+07 2.24352e-09 -1.38822e+07 -2.13271e-09 -5.90271e+06)
(4.45648e+07 -5.49674e+07 -2.38353e-09 -1.54641e+07 -6.21209e-11 -5.90271e+06)
(4.61223e+07 -5.40879e+07 -1.9968e-09 -1.70215e+07 2.60193e-09 -5.90271e+06)
(4.76539e+07 -5.31642e+07 1.19591e-09 -1.85532e+07 7.50156e-11 -5.90271e+06)
(4.91586e+07 -5.21973e+07 2.7997e-12 -2.00578e+07 5.21547e-12 -5.90271e+06)
(5.0635e+07 -5.11877e+07 8.96542e-10 -2.15343e+07 -4.63103e-10 -5.90271e+06)
(5.2082e+07 -5.01364e+07 2.70511e-09 -2.29813e+07 -1.35891e-09 -5.90271e+06)
(5.34984e+07 -4.90442e+07 2.78884e-10 -2.43976e+07 5.776e-10 -5.90271e+06)
(5.4883e+07 -4.7912e+07 -1.29179e-09 -2.57823e+07 2.00753e-09 -5.90271e+06)
(5.62348e+07 -4.67407e+07 2.60049e-10 -2.7134e+07 5.80359e-10 -5.90271e+06)
(5.75525e+07 -4.55313e+07 -7.5755e-10 -2.84517e+07 -1.75748e-09 -5.90271e+06)
(5.88351e+07 -4.42848e+07 -6.91778e-10 -2.97344e+07 9.66763e-10 -5.90271e+06)
(6.00817e+07 -4.30021e+07 3.36791e-12 -3.09809e+07 8.47101e-12 -5.90271e+06)
(6.12911e+07 -4.16844e+07 9.44458e-10 -3.21903e+07 -3.55342e-10 -5.90271e+06)
(6.24624e+07 -4.03326e+07 -2.20013e-10 -3.33616e+07 -6.02993e-10 -5.90271e+06)
(6.35946e+07 -3.8948e+07 -9.53323e-10 -3.44938e+07 3.30798e-10 -5.90271e+06)
(6.46868e+07 -3.75316e+07 2.11027e-09 -3.5586e+07 -5.03232e-11 -5.90271e+06)
(6.57381e+07 -3.60846e+07 7.83555e-12 -3.66373e+07 2.47143e-11 -5.90271e+06)
(6.67476e+07 -3.46082e+07 -2.71868e-09 -3.76469e+07 1.47008e-09 -5.90271e+06)
(6.77146e+07 -3.31035e+07 7.94218e-10 -3.86139e+07 -8.92987e-10 -5.90271e+06)
(6.86382e+07 -3.15719e+07 1.64253e-09 -3.95375e+07 2.20769e-09 -5.90271e+06)
(6.95178e+07 -3.00145e+07 -1.5874e-10 -4.0417e+07 -6.21939e-10 -5.90271e+06)
(7.03524e+07 -2.84326e+07 -2.25731e-09 -4.12517e+07 -7.57237e-10 -5.90271e+06)
(7.11416e+07 -2.68275e+07 2.10416e-09 -4.20408e+07 1.57862e-10 -5.90271e+06)
(7.18846e+07 -2.52005e+07 1.2528e-09 -4.27839e+07 1.05531e-09 -5.90271e+06)
(7.25809e+07 -2.3553e+07 -2.97252e-09 -4.34801e+07 5.73071e-10 -5.90271e+06)
(7.32298e+07 -2.18863e+07 0 -4.4129e+07 0 -5.90271e+06)
(7.38308e+07 -2.02017e+07 4.18775e-10 -4.47301e+07 2.52713e-09 -5.90271e+06)
(7.43835e+07 -1.85007e+07 2.99223e-09 -4.52828e+07 -4.59171e-10 -5.90271e+06)
(7.48874e+07 -1.67845e+07 -1.16934e-09 -4.57867e+07 -1.10552e-09 -5.90271e+06)
(7.53421e+07 -1.50547e+07 -2.92916e-09 -4.62414e+07 9.88129e-10 -5.90271e+06)
(7.57472e+07 -1.33126e+07 9.3515e-10 -4.66465e+07 -7.41769e-10 -5.90271e+06)
(7.61024e+07 -1.15596e+07 9.44846e-10 -4.70017e+07 -7.36945e-10 -5.90271e+06)
(7.64074e+07 -9.7972e+06 9.55951e-10 -4.73067e+07 -7.14763e-10 -5.90271e+06)
(7.6662e+07 -8.02681e+06 -8.16769e-11 -4.75612e+07 -1.26929e-09 -5.90271e+06)
(7.68659e+07 -6.24987e+06 3.17719e-11 -4.77651e+07 6.35164e-10 -5.90271e+06)
(7.70189e+07 -4.46784e+06 0 -4.79182e+07 0 -5.90271e+06)
(7.7121e+07 -2.68216e+06 -2.72423e-11 -4.80203e+07 -1.27162e-09 -5.90271e+06)
(7.71721e+07 -894297 0 -4.80714e+07 0 -5.90271e+06)
(-4.66677e+07 -872837 8.5741e-12 7.55703e+07 -9.75751e-10 -5.70948e+06)
(-4.66179e+07 -2.6178e+06 8.26252e-12 7.55205e+07 1.77005e-13 -5.70948e+06)
(-4.65182e+07 -4.36063e+06 -2.51327e-09 7.54208e+07 -8.97615e-11 -5.70948e+06)
(-4.63688e+07 -6.0999e+06 -1.2967e-09 7.52714e+07 9.12144e-10 -5.70948e+06)
(-4.61699e+07 -7.83419e+06 1.87819e-09 7.50724e+07 1.20859e-10 -5.70948e+06)
(-4.59214e+07 -9.5621e+06 -1.08522e-09 7.4824e+07 -2.04302e-09 -5.70948e+06)
(-4.56237e+07 -1.12822e+07 -6.33954e-10 7.45263e+07 -5.9013e-11 -5.70948e+06)
(-4.52771e+07 -1.29931e+07 -1.44366e-09 7.41796e+07 1.80761e-09 -5.70948e+06)
(-4.48817e+07 -1.46934e+07 5.01555e-10 7.37843e+07 1.0442e-09 -5.70948e+06)
(-4.44379e+07 -1.63817e+07 1.26419e-09 7.33405e+07 1.7256e-10 -5.70948e+06)
(-4.39461e+07 -1.80567e+07 4.28205e-10 7.28487e+07 -2.89589e-09 -5.70948e+06)
(-4.34066e+07 -1.97169e+07 3.32184e-10 7.23092e+07 -1.92314e-09 -5.70948e+06)
(-4.282e+07 -2.13611e+07 5.37548e-10 7.17226e+07 4.06315e-09 -5.70948e+06)
(-4.21867e+07 -2.29878e+07 -1.99116e-10 7.10892e+07 9.55336e-10 -5.70948e+06)
(-4.15071e+07 -2.45958e+07 4.06827e-10 7.04097e+07 -1.90871e-09 -5.70948e+06)
(-4.07819e+07 -2.61837e+07 1.22799e-09 6.96845e+07 2.7633e-10 -5.70948e+06)
(-4.00117e+07 -2.77503e+07 6.05486e-10 6.89143e+07 1.45364e-10 -5.70948e+06)
(-3.91971e+07 -2.92942e+07 -2.29307e-10 6.80996e+07 9.48542e-10 -5.70948e+06)
(-3.83387e+07 -3.08143e+07 -5.06487e-10 6.72412e+07 1.88471e-09 -5.70948e+06)
(-3.74372e+07 -3.23092e+07 2.96613e-09 6.63398e+07 -1.18178e-09 -5.70948e+06)
(-3.64934e+07 -3.37777e+07 1.58256e-11 6.5396e+07 4.76983e-12 -5.70948e+06)
(-3.55081e+07 -3.52187e+07 5.91166e-10 6.44107e+07 1.87426e-10 -5.70948e+06)
(-3.4482e+07 -3.6631e+07 2.11047e-09 6.33846e+07 -3.25983e-10 -5.70948e+06)
(-3.3416e+07 -3.80134e+07 2.70516e-10 6.23186e+07 1.12778e-09 -5.70948e+06)
(-3.2311e+07 -3.93648e+07 -5.92733e-10 6.12136e+07 -2.1627e-10 -5.70948e+06)
(-3.11678e+07 -4.06841e+07 -1.16308e-09 6.00704e+07 -4.43291e-10 -5.70948e+06)
(-2.99874e+07 -4.19702e+07 -3.51333e-10 5.889e+07 9.10397e-10 -5.70948e+06)
(-2.87708e+07 -4.32221e+07 2.9695e-12 5.76734e+07 1.23001e-12 -5.70948e+06)
(-2.75189e+07 -4.44387e+07 2.11684e-09 5.64215e+07 -3.33786e-09 -5.70948e+06)
(-2.62328e+07 -4.56191e+07 9.77945e-10 5.51354e+07 -6.31067e-10 -5.70948e+06)
(-2.49135e+07 -4.67623e+07 -8.3086e-10 5.38161e+07 1.76589e-09 -5.70948e+06)
(-2.35621e+07 -4.78673e+07 -1.03368e-11 5.24647e+07 -4.99093e-12 -5.70948e+06)
(-2.21797e+07 -4.89333e+07 1.26e-10 5.10823e+07 1.15428e-09 -5.70948e+06)
(-2.07674e+07 -4.99594e+07 -4.57958e-10 4.967e+07 8.61703e-10 -5.70948e+06)
(-1.93264e+07 -5.09447e+07 -6.48908e-10 4.8229e+07 -1.45583e-09 -5.70948e+06)
(-1.78579e+07 -5.18885e+07 1.02395e-09 4.67605e+07 -5.47516e-10 -5.70948e+06)
(-1.6363e+07 -5.279e+07 0 4.52655e+07 0 -5.70948e+06)
(-1.48429e+07 -5.36484e+07 1.08526e-09 4.37455e+07 6.43915e-10 -5.70948e+06)
(-1.3299e+07 -5.4463e+07 1.06617e-09 4.22016e+07 6.53349e-10 -5.70948e+06)
(-1.17324e+07 -5.52332e+07 1.02667e-09 4.0635e+07 -1.65982e-09 -5.70948e+06)
(-1.01445e+07 -5.59584e+07 1.06092e-09 3.90471e+07 6.92563e-10 -5.70948e+06)
(-8.53653e+06 -5.6638e+07 -1.09688e-09 3.74391e+07 1.61418e-09 -5.70948e+06)
(-6.9098e+06 -5.72713e+07 -1.10624e-09 3.58124e+07 1.60778e-09 -5.70948e+06)
(-5.26565e+06 -5.78579e+07 1.01274e-09 3.41682e+07 7.24805e-10 -5.70948e+06)
(-3.60541e+06 -5.83974e+07 -1.07496e-09 3.2508e+07 4.19669e-10 -5.70948e+06)
(-1.93045e+06 -5.88892e+07 -6.03182e-12 3.0833e+07 -4.58291e-12 -5.70948e+06)
(-242126 -5.9333e+07 1.60238e-09 2.91447e+07 1.49035e-11 -5.70948e+06)
(1.45818e+06 -5.97284e+07 -1.71781e-09 2.74444e+07 1.12209e-09 -5.70948e+06)
(3.16909e+06 -6.0075e+07 2.48837e-09 2.57335e+07 -3.0071e-09 -5.70948e+06)
(4.88919e+06 -6.03727e+07 1.62843e-10 2.40134e+07 -1.14416e-09 -5.70948e+06)
(6.6171e+06 -6.06211e+07 -1.46819e-09 2.22855e+07 2.60701e-09 -5.70948e+06)
(8.35139e+06 -6.08201e+07 -1.83704e-10 2.05512e+07 1.14967e-09 -5.70948e+06)
(1.00907e+07 -6.09695e+07 -6.59542e-10 1.88119e+07 7.19179e-10 -5.70948e+06)
(1.18335e+07 -6.10692e+07 6.72065e-10 1.70691e+07 -7.07464e-10 -5.70948e+06)
(1.35785e+07 -6.1119e+07 2.26465e-09 1.53241e+07 -5.07907e-10 -5.70948e+06)
(1.53241e+07 -6.1119e+07 -2.94803e-09 1.35785e+07 1.17936e-09 -5.70948e+06)
(1.70691e+07 -6.10692e+07 -7.08735e-10 1.18335e+07 6.7074e-10 -5.70948e+06)
(1.88119e+07 -6.09695e+07 2.29559e-09 1.00907e+07 -3.98355e-10 -5.70948e+06)
(2.05512e+07 -6.08201e+07 2.95822e-10 8.35139e+06 -1.12747e-09 -5.70948e+06)
(2.22855e+07 -6.06211e+07 1.0913e-11 6.6171e+06 1.2414e-11 -5.70948e+06)
(2.40134e+07 -6.03727e+07 4.02766e-10 4.88919e+06 4.71578e-10 -5.70948e+06)
(2.57335e+07 -6.0075e+07 7.51554e-10 3.16909e+06 -6.22357e-10 -5.70948e+06)
(2.74444e+07 -5.97284e+07 -3.66476e-10 1.45818e+06 1.10035e-09 -5.70948e+06)
(2.91447e+07 -5.9333e+07 7.69444e-10 -242126 -6.00099e-10 -5.70948e+06)
(3.0833e+07 -5.88892e+07 2.32839e-09 -1.93045e+06 -1.77428e-09 -5.70948e+06)
(3.2508e+07 -5.83974e+07 -8.20534e-10 -3.60541e+06 2.17541e-09 -5.70948e+06)
(3.41682e+07 -5.78579e+07 -2.38585e-09 -5.26565e+06 1.69624e-09 -5.70948e+06)
(3.58124e+07 -5.72713e+07 7.21136e-10 -6.9098e+06 1.03863e-09 -5.70948e+06)
(3.74391e+07 -5.6638e+07 -7.03026e-10 -8.53653e+06 -1.04406e-09 -5.70948e+06)
(3.90471e+07 -5.59584e+07 6.91183e-10 -1.01445e+07 1.0588e-09 -5.70948e+06)
(4.0635e+07 -5.52332e+07 3.35972e-10 -1.17324e+07 5.31082e-10 -5.70948e+06)
(4.22016e+07 -5.4463e+07 -6.5203e-10 -1.3299e+07 -1.06402e-09 -5.70948e+06)
(4.37455e+07 -5.36484e+07 2.00664e-10 -1.48429e+07 -1.57409e-09 -5.70948e+06)
(4.52655e+07 -5.279e+07 2.31918e-09 -1.6363e+07 1.19796e-10 -5.70948e+06)
(4.67605e+07 -5.18885e+07 3.03544e-10 -1.78579e+07 5.46586e-10 -5.70948e+06)
(4.8229e+07 -5.09447e+07 -3.01138e-10 -1.93264e+07 -5.60978e-10 -5.70948e+06)
(4.967e+07 -4.99594e+07 2.87812e-10 -2.07674e+07 5.55031e-10 -5.70948e+06)
(5.10823e+07 -4.89333e+07 -5.64853e-10 -2.21797e+07 -1.12843e-09 -5.70948e+06)
(5.24647e+07 -4.78673e+07 1.21016e-09 -2.35621e+07 -1.98204e-09 -5.70948e+06)
(5.38161e+07 -4.67623e+07 2.13066e-12 -2.49135e+07 4.57877e-12 -5.70948e+06)
(5.51354e+07 -4.56191e+07 -2.67313e-09 -2.62328e+07 1.19326e-09 -5.70948e+06)
(5.64215e+07 -4.44387e+07 -1.7899e-09 -2.75189e+07 7.77776e-10 -5.70948e+06)
(5.76734e+07 -4.32221e+07 2.70102e-09 -2.87708e+07 -1.12874e-09 -5.70948e+06)
(5.889e+07 -4.19702e+07 2.04941e-09 -2.99874e+07 -1.27658e-10 -5.70948e+06)
(6.00704e+07 -4.06841e+07 -2.73689e-09 -3.11678e+07 1.0387e-09 -5.70948e+06)
(6.12136e+07 -3.93648e+07 -1.34866e-09 -3.2311e+07 -8.4949e-10 -5.70948e+06)
(6.23186e+07 -3.80134e+07 -4.13678e-10 -3.3416e+07 -1.1861e-09 -5.70948e+06)
(6.33846e+07 -3.6631e+07 2.9729e-09 -3.4482e+07 -3.37555e-10 -5.70948e+06)
(6.44107e+07 -3.52187e+07 -3.7388e-10 -3.55081e+07 -1.17927e-09 -5.70948e+06)
(6.5396e+07 -3.37777e+07 -2.62432e-09 -3.64934e+07 1.43701e-09 -5.70948e+06)
(6.63398e+07 -3.23092e+07 2.98463e-09 -3.74372e+07 -2.09926e-10 -5.70948e+06)
(6.72412e+07 -3.08143e+07 3.4767e-12 -3.83387e+07 1.28527e-11 -5.70948e+06)
(6.80996e+07 -2.92942e+07 -2.2057e-09 -3.91971e+07 -7.5053e-10 -5.70948e+06)
(6.89143e+07 -2.77503e+07 1.9293e-12 -4.00117e+07 8.03607e-12 -5.70948e+06)
(6.96845e+07 -2.61837e+07 2.73961e-10 -4.07819e+07 1.21746e-09 -5.70948e+06)
(7.04097e+07 -2.45958e+07 6.98726e-10 -4.15071e+07 -1.42028e-09 -5.70948e+06)
(7.10892e+07 -2.29878e+07 -1.0789e-09 -4.21867e+07 -4.33896e-10 -5.70948e+06)
(7.17226e+07 -2.13611e+07 2.02966e-09 -4.282e+07 2.58156e-10 -5.70948e+06)
(7.23092e+07 -1.97169e+07 1.06637e-09 -4.34066e+07 4.66339e-10 -5.70948e+06)
(7.28487e+07 -1.80567e+07 -1.83752e-09 -4.39461e+07 9.01553e-10 -5.70948e+06)
(7.33405e+07 -1.63817e+07 -1.69113e-10 -4.44379e+07 -1.23894e-09 -5.70948e+06)
(7.37843e+07 -1.46934e+07 -1.78481e-09 -4.48817e+07 1.48574e-09 -5.70948e+06)
(7.41796e+07 -1.29931e+07 -1.87322e-09 -4.52771e+07 8.33443e-10 -5.70948e+06)
(7.45263e+07 -1.12822e+07 1.03022e-09 -4.56237e+07 5.39397e-10 -5.70948e+06)
(7.4824e+07 -9.5621e+06 1.847e-09 -4.59214e+07 -1.40542e-09 -5.70948e+06)
(7.50724e+07 -7.83419e+06 9.74039e-10 -4.61699e+07 -5.85371e-11 -5.70948e+06)
(7.52714e+07 -6.0999e+06 -6.30439e-11 -4.63688e+07 -1.26034e-09 -5.70948e+06)
(7.54208e+07 -4.36063e+06 0 -4.65182e+07 0 -5.70948e+06)
(7.55205e+07 -2.6178e+06 0 -4.66179e+07 0 -5.70948e+06)
(7.55703e+07 -872837 0 -4.66677e+07 0 -5.70948e+06)
(-4.55602e+07 -854339 -6.2968e-10 7.40873e+07 -4.49599e-12 -5.53573e+06)
(-4.55114e+07 -2.56232e+06 -3.25221e-11 7.40385e+07 1.88951e-09 -5.53573e+06)
(-4.54139e+07 -4.26821e+06 5.53894e-10 7.3941e+07 1.91076e-09 -5.53573e+06)
(-4.52677e+07 -5.97062e+06 1.84118e-10 7.37947e+07 -3.77506e-09 -5.53573e+06)
(-4.50729e+07 -7.66816e+06 1.36843e-09 7.36e+07 -1.80562e-09 -5.53573e+06)
(-4.48297e+07 -9.35945e+06 -1.54088e-09 7.33568e+07 3.66996e-09 -5.53573e+06)
(-4.45383e+07 -1.10431e+07 -4.6897e-12 7.30654e+07 -4.36553e-13 -5.53573e+06)
(-4.4199e+07 -1.27177e+07 1.45096e-09 7.27261e+07 -1.74467e-09 -5.53573e+06)
(-4.3812e+07 -1.4382e+07 2.09802e-10 7.23391e+07 -1.87819e-09 -5.53573e+06)
(-4.33776e+07 -1.60346e+07 6.1748e-10 7.19047e+07 8.42848e-11 -5.53573e+06)
(-4.28962e+07 -1.7674e+07 2.16714e-09 7.14233e+07 2.23861e-09 -5.53573e+06)
(-4.23682e+07 -1.92991e+07 -1.22035e-09 7.08953e+07 -2.02226e-10 -5.53573e+06)
(-4.1794e+07 -2.09084e+07 -3.27706e-10 7.03211e+07 1.86116e-09 -5.53573e+06)
(-4.11741e+07 -2.25006e+07 -1.56162e-11 6.97012e+07 -3.04833e-12 -5.53573e+06)
(-4.0509e+07 -2.40746e+07 -2.19955e-10 6.9036e+07 -1.97723e-09 -5.53573e+06)
(-3.97992e+07 -2.56288e+07 0 6.83262e+07 0 -5.53573e+06)
(-3.90453e+07 -2.71622e+07 -6.12298e-10 6.75723e+07 -1.47e-10 -5.53573e+06)
(-3.82479e+07 -2.86734e+07 0 6.67749e+07 0 -5.53573e+06)
(-3.74077e+07 -3.01612e+07 2.16562e-09 6.59347e+07 -3.32958e-09 -5.53573e+06)
(-3.65253e+07 -3.16244e+07 1.1984e-09 6.50524e+07 3.42607e-10 -5.53573e+06)
(-3.56015e+07 -3.30619e+07 -2.30101e-09 6.41286e+07 3.25396e-09 -5.53573e+06)
(-3.46371e+07 -3.44723e+07 5.52864e-10 6.31641e+07 -1.80719e-09 -5.53573e+06)
(-3.36327e+07 -3.58547e+07 -1.17985e-09 6.21598e+07 -3.92691e-10 -5.53573e+06)
(-3.25893e+07 -3.72078e+07 -1.83924e-09 6.11164e+07 3.36135e-09 -5.53573e+06)
(-3.15077e+07 -3.85306e+07 5.76603e-10 6.00348e+07 2.10384e-10 -5.53573e+06)
(-3.03888e+07 -3.98219e+07 1.25841e-09 5.89158e+07 -1.54275e-09 -5.53573e+06)
(-2.92334e+07 -4.10807e+07 5.74737e-10 5.77605e+07 2.28504e-10 -5.53573e+06)
(-2.80426e+07 -4.23061e+07 1.14283e-09 5.65696e+07 4.73376e-10 -5.53573e+06)
(-2.68172e+07 -4.34969e+07 -5.78263e-10 5.53443e+07 -2.49257e-10 -5.53573e+06)
(-2.55584e+07 -4.46523e+07 1.02217e-11 5.40854e+07 4.5802e-12 -5.53573e+06)
(-2.4267e+07 -4.57712e+07 -7.90081e-10 5.27941e+07 1.7167e-09 -5.53573e+06)
(-2.29443e+07 -4.68529e+07 -4.24146e-12 5.14713e+07 -2.04791e-12 -5.53573e+06)
(-2.15912e+07 -4.78963e+07 1.4228e-11 5.01182e+07 7.122e-12 -5.53573e+06)
(-2.02088e+07 -4.89006e+07 -1.42607e-09 4.87359e+07 1.38925e-09 -5.53573e+06)
(-1.87983e+07 -4.98651e+07 1.44161e-09 4.73254e+07 -1.37097e-09 -5.53573e+06)
(-1.73609e+07 -5.07888e+07 9.24446e-10 4.5888e+07 -1.64824e-09 -5.53573e+06)
(-1.58977e+07 -5.16712e+07 9.34089e-10 4.44248e+07 -1.6428e-09 -5.53573e+06)
(-1.44099e+07 -5.25114e+07 4.05064e-12 4.29369e+07 2.40335e-12 -5.53573e+06)
(-1.28986e+07 -5.33088e+07 -3.03907e-09 4.14257e+07 2.57041e-09 -5.53573e+06)
(-1.13653e+07 -5.40627e+07 9.99608e-10 3.98924e+07 -1.6038e-09 -5.53573e+06)
(-9.81101e+06 -5.47725e+07 7.79718e-12 3.83381e+07 -2.2517e-09 -5.53573e+06)
(-8.23711e+06 -5.54376e+07 -1.0621e-09 3.67642e+07 1.56309e-09 -5.53573e+06)
(-6.64485e+06 -5.60576e+07 0 3.51719e+07 0 -5.53573e+06)
(-5.03554e+06 -5.66318e+07 -8.74543e-11 3.35626e+07 2.2613e-09 -5.53573e+06)
(-3.41049e+06 -5.71598e+07 -3.79058e-12 3.19376e+07 -2.79558e-12 -5.53573e+06)
(-1.77103e+06 -5.76412e+07 3.62088e-09 3.02981e+07 3.77754e-10 -5.53573e+06)
(-118485 -5.80755e+07 -1.15838e-09 2.86456e+07 1.49314e-09 -5.53573e+06)
(1.54579e+06 -5.84626e+07 9.59505e-10 2.69813e+07 7.73218e-10 -5.53573e+06)
(3.22043e+06 -5.88019e+07 9.64236e-10 2.53066e+07 8.00007e-10 -5.53573e+06)
(4.90409e+06 -5.90932e+07 -9.44197e-10 2.3623e+07 -8.0642e-10 -5.53573e+06)
(6.59537e+06 -5.93364e+07 1.7182e-09 2.19317e+07 -1.00571e-09 -5.53573e+06)