/*--------------------------------*- C++ -*----------------------------------*\
| =========                 |                                                 |
| \\      /  F ield         | OpenFOAM: The Open Source CFD Toolbox           |
|  \\    /   O peration     | Version:  2312                                  |
|   \\  /    A nd           | Website:  www.openfoam.com                      |
|    \\/     M anipulation  |                                                 |
\*---------------------------------------------------------------------------*/
FoamFile
{
    version     2.0;
    format      ascii;
    arch        "LSB;label=32;scalar=64";
    class       volVectorField;
    location    "50";
    object      U;
}
// * * * * * * * * * * * * * * * * * * * * * * * * * * * * * * * * * * * * * //

dimensions      [0 1 -1 0 0 0 0];

internalField   nonuniform List<vector> 
12870
(
(0.0444163 0.000317137 0)
(0.0444072 0.000951346 0)
(0.0443891 0.00158536 0)
(0.0443619 0.00221905 0)
(0.0443257 0.00285229 0)
(0.0442805 0.00348495 0)
(0.0442262 0.0041169 0)
(0.0441629 0.004748 0)
(0.0440906 0.00537814 0)
(0.0440093 0.00600719 0)
(0.043919 0.006635 0)
(0.0438198 0.00726147 0)
(0.0437117 0.00788645 0)
(0.0435946 0.00850983 0)
(0.0434686 0.00913147 0)
(0.0433338 0.00975125 0)
(0.0431902 0.010369 0)
(0.0430377 0.0109847 0)
(0.0428764 0.0115981 0)
(0.0427065 0.0122092 0)
(0.0425278 0.0128178 0)
(0.0423404 0.0134238 0)
(0.0421444 0.014027 0)
(0.0419398 0.0146274 0)
(0.0417266 0.0152248 0)
(0.041505 0.015819 0)
(0.0412749 0.0164101 0)
(0.0410363 0.0169978 0)
(0.0407894 0.0175821 0)
(0.0405342 0.0181627 0)
(0.0402707 0.0187397 0)
(0.039999 0.0193128 0)
(0.0397192 0.019882 0)
(0.0394312 0.0204471 0)
(0.0391352 0.0210081 0)
(0.0388312 0.0215648 0)
(0.0385194 0.0221171 0)
(0.0381996 0.0226649 0)
(0.0378721 0.023208 0)
(0.0375368 0.0237465 0)
(0.0371939 0.02428 0)
(0.0368434 0.0248087 0)
(0.0364854 0.0253323 0)
(0.0361199 0.0258507 0)
(0.0357471 0.0263638 0)
(0.035367 0.0268716 0)
(0.0349797 0.0273738 0)
(0.0345852 0.0278705 0)
(0.0341837 0.0283616 0)
(0.0337753 0.0288468 0)
(0.0333599 0.0293262 0)
(0.0329377 0.0297995 0)
(0.0325089 0.0302668 0)
(0.0320733 0.0307279 0)
(0.0316313 0.0311828 0)
(0.0311828 0.0316313 0)
(0.0307279 0.0320733 0)
(0.0302668 0.0325089 0)
(0.0297995 0.0329377 0)
(0.0293262 0.0333599 0)
(0.0288468 0.0337753 0)
(0.0283616 0.0341837 0)
(0.0278705 0.0345852 0)
(0.0273738 0.0349797 0)
(0.0268716 0.035367 0)
(0.0263638 0.0357471 0)
(0.0258507 0.0361199 0)
(0.0253323 0.0364854 0)
(0.0248087 0.0368434 0)
(0.02428 0.0371939 0)
(0.0237465 0.0375368 0)
(0.023208 0.0378721 0)
(0.0226649 0.0381996 0)
(0.0221171 0.0385194 0)
(0.0215648 0.0388312 0)
(0.0210081 0.0391352 0)
(0.0204471 0.0394312 0)
(0.019882 0.0397192 0)
(0.0193128 0.039999 0)
(0.0187397 0.0402707 0)
(0.0181627 0.0405342 0)
(0.0175821 0.0407894 0)
(0.0169978 0.0410363 0)
(0.0164101 0.0412749 0)
(0.015819 0.041505 0)
(0.0152248 0.0417266 0)
(0.0146274 0.0419398 0)
(0.014027 0.0421444 0)
(0.0134238 0.0423404 0)
(0.0128178 0.0425278 0)
(0.0122092 0.0427065 0)
(0.0115981 0.0428764 0)
(0.0109847 0.0430377 0)
(0.010369 0.0431902 0)
(0.00975125 0.0433338 0)
(0.00913147 0.0434686 0)
(0.00850983 0.0435946 0)
(0.00788645 0.0437117 0)
(0.00726147 0.0438198 0)
(0.006635 0.043919 0)
(0.00600719 0.0440093 0)
(0.00537814 0.0440906 0)
(0.004748 0.0441629 0)
(0.0041169 0.0442262 0)
(0.00348495 0.0442805 0)
(0.00285229 0.0443257 0)
(0.00221905 0.0443619 0)
(0.00158536 0.0443891 0)
(0.000951346 0.0444072 0)
(0.000317137 0.0444163 0)
(0.0441729 0.000315399 0)
(0.0441638 0.000946132 0)
(0.0441458 0.00157667 0)
(0.0441188 0.00220689 0)
(0.0440828 0.00283666 0)
(0.0440378 0.00346585 0)
(0.0439838 0.00409433 0)
(0.0439209 0.00472198 0)
(0.043849 0.00534867 0)
(0.0437681 0.00597426 0)
(0.0436783 0.00659864 0)
(0.0435797 0.00722167 0)
(0.0434721 0.00784323 0)
(0.0433557 0.00846319 0)
(0.0432304 0.00908142 0)
(0.0430963 0.00969781 0)
(0.0429534 0.0103122 0)
(0.0428018 0.0109245 0)
(0.0426415 0.0115346 0)
(0.0424724 0.0121423 0)
(0.0422947 0.0127476 0)
(0.0421083 0.0133502 0)
(0.0419134 0.0139501 0)
(0.0417099 0.0145472 0)
(0.041498 0.0151413 0)
(0.0412775 0.0157323 0)
(0.0410487 0.0163202 0)
(0.0408114 0.0169046 0)
(0.0405659 0.0174857 0)
(0.0403121 0.0180632 0)
(0.04005 0.018637 0)
(0.0397798 0.019207 0)
(0.0395015 0.019773 0)
(0.0392151 0.0203351 0)
(0.0389207 0.020893 0)
(0.0386184 0.0214466 0)
(0.0383082 0.0219959 0)
(0.0379902 0.0225407 0)
(0.0376645 0.0230808 0)
(0.0373311 0.0236163 0)
(0.03699 0.024147 0)
(0.0366415 0.0246727 0)
(0.0362854 0.0251934 0)
(0.035922 0.025709 0)
(0.0355512 0.0262193 0)
(0.0351732 0.0267243 0)
(0.034788 0.0272238 0)
(0.0343957 0.0277178 0)
(0.0339964 0.0282061 0)
(0.0335902 0.0286887 0)
(0.0331771 0.0291654 0)
(0.0327572 0.0296362 0)
(0.0323307 0.0301009 0)
(0.0318976 0.0305595 0)
(0.0314579 0.0310119 0)
(0.0310119 0.0314579 0)
(0.0305595 0.0318976 0)
(0.0301009 0.0323307 0)
(0.0296362 0.0327572 0)
(0.0291654 0.0331771 0)
(0.0286887 0.0335902 0)
(0.0282061 0.0339964 0)
(0.0277178 0.0343957 0)
(0.0272238 0.034788 0)
(0.0267243 0.0351732 0)
(0.0262193 0.0355512 0)
(0.025709 0.035922 0)
(0.0251934 0.0362854 0)
(0.0246727 0.0366415 0)
(0.024147 0.03699 0)
(0.0236163 0.0373311 0)
(0.0230808 0.0376645 0)
(0.0225407 0.0379902 0)
(0.0219959 0.0383082 0)
(0.0214466 0.0386184 0)
(0.020893 0.0389207 0)
(0.0203351 0.0392151 0)
(0.019773 0.0395015 0)
(0.019207 0.0397798 0)
(0.018637 0.04005 0)
(0.0180632 0.0403121 0)
(0.0174857 0.0405659 0)
(0.0169046 0.0408114 0)
(0.0163202 0.0410487 0)
(0.0157323 0.0412775 0)
(0.0151413 0.041498 0)
(0.0145472 0.0417099 0)
(0.0139501 0.0419134 0)
(0.0133502 0.0421083 0)
(0.0127476 0.0422947 0)
(0.0121423 0.0424724 0)
(0.0115346 0.0426415 0)
(0.0109245 0.0428018 0)
(0.0103122 0.0429534 0)
(0.00969781 0.0430963 0)
(0.00908142 0.0432304 0)
(0.00846319 0.0433557 0)
(0.00784323 0.0434721 0)
(0.00722167 0.0435797 0)
(0.00659864 0.0436783 0)
(0.00597426 0.0437681 0)
(0.00534867 0.043849 0)
(0.00472198 0.0439209 0)
(0.00409433 0.0439838 0)
(0.00346585 0.0440378 0)
(0.00283666 0.0440828 0)
(0.00220689 0.0441188 0)
(0.00157667 0.0441458 0)
(0.000946132 0.0441638 0)
(0.000315399 0.0441729 0)
(0.0439362 0.000313709 0)
(0.0439273 0.000941064 0)
(0.0439094 0.00156823 0)
(0.0438825 0.00219507 0)
(0.0438467 0.00282147 0)
(0.0438019 0.00344729 0)
(0.0437482 0.0040724 0)
(0.0436856 0.00469669 0)
(0.0436141 0.00532002 0)
(0.0435337 0.00594226 0)
(0.0434444 0.00656329 0)
(0.0433462 0.00718299 0)
(0.0432392 0.00780122 0)
(0.0431234 0.00841786 0)
(0.0429988 0.00903278 0)
(0.0428655 0.00964586 0)
(0.0427234 0.010257 0)
(0.0425725 0.010866 0)
(0.042413 0.0114728 0)
(0.0422449 0.0120773 0)
(0.0420681 0.0126793 0)
(0.0418828 0.0132787 0)
(0.0416889 0.0138754 0)
(0.0414865 0.0144693 0)
(0.0412757 0.0150602 0)
(0.0410564 0.0156481 0)
(0.0408288 0.0162327 0)
(0.0405928 0.0168141 0)
(0.0403486 0.017392 0)
(0.0400961 0.0179664 0)
(0.0398355 0.0185371 0)
(0.0395667 0.0191041 0)
(0.0392899 0.0196671 0)
(0.0390051 0.0202262 0)
(0.0387123 0.0207811 0)
(0.0384116 0.0213317 0)
(0.038103 0.0218781 0)
(0.0377868 0.0224199 0)
(0.0374628 0.0229572 0)
(0.0371311 0.0234898 0)
(0.0367919 0.0240176 0)
(0.0364452 0.0245406 0)
(0.0360911 0.0250585 0)
(0.0357296 0.0255713 0)
(0.0353608 0.0260789 0)
(0.0349848 0.0265811 0)
(0.0346016 0.027078 0)
(0.0342115 0.0275693 0)
(0.0338143 0.028055 0)
(0.0334102 0.028535 0)
(0.0329994 0.0290092 0)
(0.0325818 0.0294775 0)
(0.0321575 0.0299397 0)
(0.0317267 0.0303958 0)
(0.0312894 0.0308458 0)
(0.0308458 0.0312894 0)
(0.0303958 0.0317267 0)
(0.0299397 0.0321575 0)
(0.0294775 0.0325818 0)
(0.0290092 0.0329994 0)
(0.028535 0.0334102 0)
(0.028055 0.0338143 0)
(0.0275693 0.0342115 0)
(0.027078 0.0346016 0)
(0.0265811 0.0349848 0)
(0.0260789 0.0353608 0)
(0.0255713 0.0357296 0)
(0.0250585 0.0360911 0)
(0.0245406 0.0364452 0)
(0.0240176 0.0367919 0)
(0.0234898 0.0371311 0)
(0.0229572 0.0374628 0)
(0.0224199 0.0377868 0)
(0.0218781 0.038103 0)
(0.0213317 0.0384116 0)
(0.0207811 0.0387123 0)
(0.0202262 0.0390051 0)
(0.0196671 0.0392899 0)
(0.0191041 0.0395667 0)
(0.0185371 0.0398355 0)
(0.0179664 0.0400961 0)
(0.017392 0.0403486 0)
(0.0168141 0.0405928 0)
(0.0162327 0.0408288 0)
(0.0156481 0.0410564 0)
(0.0150602 0.0412757 0)
(0.0144693 0.0414865 0)
(0.0138754 0.0416889 0)
(0.0132787 0.0418828 0)
(0.0126793 0.0420681 0)
(0.0120773 0.0422449 0)
(0.0114728 0.042413 0)
(0.010866 0.0425725 0)
(0.010257 0.0427234 0)
(0.00964586 0.0428655 0)
(0.00903278 0.0429988 0)
(0.00841786 0.0431234 0)
(0.00780122 0.0432392 0)
(0.00718299 0.0433462 0)
(0.00656329 0.0434444 0)
(0.00594226 0.0435337 0)
(0.00532002 0.0436141 0)
(0.00469669 0.0436856 0)
(0.0040724 0.0437482 0)
(0.00344729 0.0438019 0)
(0.00282147 0.0438467 0)
(0.00219507 0.0438825 0)
(0.00156823 0.0439094 0)
(0.000941064 0.0439273 0)
(0.000313709 0.0439362 0)
(0.0437022 0.000312039 0)
(0.0436933 0.000936052 0)
(0.0436755 0.00155987 0)
(0.0436488 0.00218338 0)
(0.0436131 0.00280644 0)
(0.0435686 0.00342893 0)
(0.0435152 0.00405071 0)
(0.0434529 0.00467167 0)
(0.0433818 0.00529168 0)
(0.0433018 0.00591061 0)
(0.043213 0.00652834 0)
(0.0431154 0.00714473 0)
(0.043009 0.00775967 0)
(0.0428938 0.00837302 0)
(0.0427698 0.00898467 0)
(0.0426372 0.00959449 0)
(0.0424958 0.0102023 0)
(0.0423458 0.0108081 0)
(0.0421872 0.0114117 0)
(0.0420199 0.0120129 0)
(0.0418441 0.0126117 0)
(0.0416597 0.013208 0)
(0.0414669 0.0138015 0)
(0.0412656 0.0143922 0)
(0.0410558 0.01498 0)
(0.0408378 0.0155647 0)
(0.0406113 0.0161463 0)
(0.0403766 0.0167245 0)
(0.0401337 0.0172994 0)
(0.0398826 0.0178707 0)
(0.0396233 0.0184384 0)
(0.039356 0.0190023 0)
(0.0390806 0.0195624 0)
(0.0387973 0.0201184 0)
(0.0385061 0.0206704 0)
(0.038207 0.0212181 0)
(0.0379001 0.0217615 0)
(0.0375855 0.0223005 0)
(0.0372632 0.0228349 0)
(0.0369334 0.0233647 0)
(0.036596 0.0238897 0)
(0.0362511 0.0244099 0)
(0.0358988 0.024925 0)
(0.0355393 0.0254351 0)
(0.0351724 0.02594 0)
(0.0347984 0.0264396 0)
(0.0344174 0.0269338 0)
(0.0340292 0.0274225 0)
(0.0336342 0.0279056 0)
(0.0332323 0.0283831 0)
(0.0328236 0.0288547 0)
(0.0324082 0.0293205 0)
(0.0319862 0.0297802 0)
(0.0315577 0.030234 0)
(0.0311228 0.0306815 0)
(0.0306815 0.0311228 0)
(0.030234 0.0315577 0)
(0.0297802 0.0319862 0)
(0.0293205 0.0324082 0)
(0.0288547 0.0328236 0)
(0.0283831 0.0332323 0)
(0.0279056 0.0336342 0)
(0.0274225 0.0340292 0)
(0.0269338 0.0344174 0)
(0.0264396 0.0347984 0)
(0.02594 0.0351724 0)
(0.0254351 0.0355393 0)
(0.024925 0.0358988 0)
(0.0244099 0.0362511 0)
(0.0238897 0.036596 0)
(0.0233647 0.0369334 0)
(0.0228349 0.0372632 0)
(0.0223005 0.0375855 0)
(0.0217615 0.0379001 0)
(0.0212181 0.038207 0)
(0.0206704 0.0385061 0)
(0.0201184 0.0387973 0)
(0.0195624 0.0390806 0)
(0.0190023 0.039356 0)
(0.0184384 0.0396233 0)
(0.0178707 0.0398826 0)
(0.0172994 0.0401337 0)
(0.0167245 0.0403766 0)
(0.0161463 0.0406113 0)
(0.0155647 0.0408378 0)
(0.01498 0.0410558 0)
(0.0143922 0.0412656 0)
(0.0138015 0.0414669 0)
(0.013208 0.0416597 0)
(0.0126117 0.0418441 0)
(0.0120129 0.0420199 0)
(0.0114117 0.0421872 0)
(0.0108081 0.0423458 0)
(0.0102023 0.0424958 0)
(0.00959449 0.0426372 0)
(0.00898467 0.0427698 0)
(0.00837302 0.0428938 0)
(0.00775967 0.043009 0)
(0.00714473 0.0431154 0)
(0.00652834 0.043213 0)
(0.00591061 0.0433018 0)
(0.00529168 0.0433818 0)
(0.00467167 0.0434529 0)
(0.00405071 0.0435152 0)
(0.00342893 0.0435686 0)
(0.00280644 0.0436131 0)
(0.00218338 0.0436488 0)
(0.00155987 0.0436755 0)
(0.000936052 0.0436933 0)
(0.000312039 0.0437022 0)
(0.0434733 0.000310404 0)
(0.0434645 0.000931149 0)
(0.0434467 0.0015517 0)
(0.0434202 0.00217194 0)
(0.0433847 0.00279174 0)
(0.0433404 0.00341097 0)
(0.0432873 0.0040295 0)
(0.0432253 0.00464721 0)
(0.0431546 0.00526397 0)
(0.043075 0.00587966 0)
(0.0429867 0.00649415 0)
(0.0428895 0.00710731 0)
(0.0427837 0.00771903 0)
(0.0426691 0.00832917 0)
(0.0425458 0.00893761 0)
(0.0424139 0.00954423 0)
(0.0422732 0.0101489 0)
(0.042124 0.0107515 0)
(0.0419662 0.0113519 0)
(0.0417998 0.01195 0)
(0.0416249 0.0125457 0)
(0.0414415 0.0131388 0)
(0.0412497 0.0137292 0)
(0.0410494 0.0143168 0)
(0.0408408 0.0149015 0)
(0.0406239 0.0154832 0)
(0.0403986 0.0160617 0)
(0.0401651 0.0166369 0)
(0.0399235 0.0172088 0)
(0.0396737 0.0177771 0)
(0.0394158 0.0183418 0)
(0.0391499 0.0189028 0)
(0.0388759 0.0194599 0)
(0.0385941 0.0200131 0)
(0.0383044 0.0205621 0)
(0.0380069 0.021107 0)
(0.0377016 0.0216476 0)
(0.0373886 0.0221837 0)
(0.0370681 0.0227153 0)
(0.0367399 0.0232423 0)
(0.0364043 0.0237646 0)
(0.0360612 0.024282 0)
(0.0357108 0.0247945 0)
(0.0353531 0.0253019 0)
(0.0349882 0.0258041 0)
(0.0346162 0.0263011 0)
(0.0342371 0.0267927 0)
(0.033851 0.0272789 0)
(0.033458 0.0277595 0)
(0.0330582 0.0282344 0)
(0.0326517 0.0287036 0)
(0.0322385 0.0291669 0)
(0.0318187 0.0296243 0)
(0.0313924 0.0300756 0)
(0.0309598 0.0305208 0)
(0.0305208 0.0309598 0)
(0.0300756 0.0313924 0)
(0.0296243 0.0318187 0)
(0.0291669 0.0322385 0)
(0.0287036 0.0326517 0)
(0.0282344 0.0330582 0)
(0.0277595 0.033458 0)
(0.0272789 0.033851 0)
(0.0267927 0.0342371 0)
(0.0263011 0.0346162 0)
(0.0258041 0.0349882 0)
(0.0253019 0.0353531 0)
(0.0247945 0.0357108 0)
(0.024282 0.0360612 0)
(0.0237646 0.0364043 0)
(0.0232423 0.0367399 0)
(0.0227153 0.0370681 0)
(0.0221837 0.0373886 0)
(0.0216476 0.0377016 0)
(0.021107 0.0380069 0)
(0.0205621 0.0383044 0)
(0.0200131 0.0385941 0)
(0.0194599 0.0388759 0)
(0.0189028 0.0391499 0)
(0.0183418 0.0394158 0)
(0.0177771 0.0396737 0)
(0.0172088 0.0399235 0)
(0.0166369 0.0401651 0)
(0.0160617 0.0403986 0)
(0.0154832 0.0406239 0)
(0.0149015 0.0408408 0)
(0.0143168 0.0410494 0)
(0.0137292 0.0412497 0)
(0.0131388 0.0414415 0)
(0.0125457 0.0416249 0)
(0.01195 0.0417998 0)
(0.0113519 0.0419662 0)
(0.0107515 0.042124 0)
(0.0101489 0.0422732 0)
(0.00954423 0.0424139 0)
(0.00893761 0.0425458 0)
(0.00832917 0.0426691 0)
(0.00771903 0.0427837 0)
(0.00710731 0.0428895 0)
(0.00649415 0.0429867 0)
(0.00587966 0.043075 0)
(0.00526397 0.0431546 0)
(0.00464721 0.0432253 0)
(0.0040295 0.0432873 0)
(0.00341097 0.0433404 0)
(0.00279174 0.0433847 0)
(0.00217194 0.0434202 0)
(0.0015517 0.0434467 0)
(0.000931149 0.0434645 0)
(0.000310404 0.0434733 0)
(0.043248 0.000308795 0)
(0.0432392 0.000926323 0)
(0.0432216 0.00154366 0)
(0.0431951 0.00216069 0)
(0.0431599 0.00277727 0)
(0.0431158 0.00339329 0)
(0.043063 0.00400861 0)
(0.0430013 0.00462312 0)
(0.0429309 0.00523669 0)
(0.0428518 0.00584918 0)
(0.0427639 0.00646049 0)
(0.0426673 0.00707048 0)
(0.042562 0.00767902 0)
(0.042448 0.008286 0)
(0.0423253 0.00889129 0)
(0.042194 0.00949477 0)
(0.0420542 0.0100963 0)
(0.0419057 0.0106958 0)
(0.0417487 0.0112931 0)
(0.0415832 0.0118881 0)
(0.0414092 0.0124807 0)
(0.0412267 0.0130707 0)
(0.0410359 0.0136581 0)
(0.0408367 0.0142426 0)
(0.0406291 0.0148243 0)
(0.0404133 0.015403 0)
(0.0401892 0.0159785 0)
(0.039957 0.0165507 0)
(0.0397166 0.0171196 0)
(0.0394681 0.017685 0)
(0.0392115 0.0182468 0)
(0.038947 0.0188048 0)
(0.0386745 0.0193591 0)
(0.0383941 0.0199093 0)
(0.0381059 0.0204556 0)
(0.0378099 0.0209976 0)
(0.0375062 0.0215354 0)
(0.0371949 0.0220687 0)
(0.0368759 0.0225976 0)
(0.0365495 0.0231219 0)
(0.0362156 0.0236414 0)
(0.0358743 0.0241562 0)
(0.0355257 0.024666 0)
(0.0351699 0.0251707 0)
(0.0348069 0.0256704 0)
(0.0344368 0.0261648 0)
(0.0340596 0.0266539 0)
(0.0336756 0.0271375 0)
(0.0332846 0.0276156 0)
(0.0328869 0.0280881 0)
(0.0324825 0.0285548 0)
(0.0320714 0.0290157 0)
(0.0316538 0.0294707 0)
(0.0312297 0.0299197 0)
(0.0307993 0.0303626 0)
(0.0303626 0.0307993 0)
(0.0299197 0.0312297 0)
(0.0294707 0.0316538 0)
(0.0290157 0.0320714 0)
(0.0285548 0.0324825 0)
(0.0280881 0.0328869 0)
(0.0276156 0.0332846 0)
(0.0271375 0.0336756 0)
(0.0266539 0.0340596 0)
(0.0261648 0.0344368 0)
(0.0256704 0.0348069 0)
(0.0251707 0.0351699 0)
(0.024666 0.0355257 0)
(0.0241562 0.0358743 0)
(0.0236414 0.0362156 0)
(0.0231219 0.0365495 0)
(0.0225976 0.0368759 0)
(0.0220687 0.0371949 0)
(0.0215354 0.0375062 0)
(0.0209976 0.0378099 0)
(0.0204556 0.0381059 0)
(0.0199093 0.0383941 0)
(0.0193591 0.0386745 0)
(0.0188048 0.038947 0)
(0.0182468 0.0392115 0)
(0.017685 0.0394681 0)
(0.0171196 0.0397166 0)
(0.0165507 0.039957 0)
(0.0159785 0.0401892 0)
(0.015403 0.0404133 0)
(0.0148243 0.0406291 0)
(0.0142426 0.0408367 0)
(0.0136581 0.0410359 0)
(0.0130707 0.0412267 0)
(0.0124807 0.0414092 0)
(0.0118881 0.0415832 0)
(0.0112931 0.0417487 0)
(0.0106958 0.0419057 0)
(0.0100963 0.0420542 0)
(0.00949477 0.042194 0)
(0.00889129 0.0423253 0)
(0.008286 0.042448 0)
(0.00767902 0.042562 0)
(0.00707048 0.0426673 0)
(0.00646049 0.0427639 0)
(0.00584918 0.0428518 0)
(0.00523669 0.0429309 0)
(0.00462312 0.0430013 0)
(0.00400861 0.043063 0)
(0.00339329 0.0431158 0)
(0.00277727 0.0431599 0)
(0.00216069 0.0431951 0)
(0.00154366 0.0432216 0)
(0.000926323 0.0432392 0)
(0.000308795 0.043248 0)
(0.0430272 0.000307218 0)
(0.0430184 0.000921593 0)
(0.0430008 0.00153578 0)
(0.0429745 0.00214965 0)
(0.0429395 0.00276309 0)
(0.0428956 0.00337596 0)
(0.042843 0.00398814 0)
(0.0427817 0.00459951 0)
(0.0427117 0.00520994 0)
(0.0426329 0.00581931 0)
(0.0425455 0.0064275 0)
(0.0424494 0.00703437 0)
(0.0423446 0.00763981 0)
(0.0422312 0.00824369 0)
(0.0421092 0.00884588 0)
(0.0419786 0.00944628 0)
(0.0418394 0.0100447 0)
(0.0416917 0.0106412 0)
(0.0415355 0.0112354 0)
(0.0413708 0.0118274 0)
(0.0411977 0.0124169 0)
(0.0410162 0.0130039 0)
(0.0408263 0.0135883 0)
(0.0406281 0.0141699 0)
(0.0404217 0.0147486 0)
(0.0402069 0.0153243 0)
(0.039984 0.0158969 0)
(0.0397529 0.0164662 0)
(0.0395137 0.0170322 0)
(0.0392665 0.0175947 0)
(0.0390113 0.0181536 0)
(0.0387481 0.0187088 0)
(0.038477 0.0192602 0)
(0.038198 0.0198077 0)
(0.0379113 0.0203511 0)
(0.0376168 0.0208904 0)
(0.0373147 0.0214254 0)
(0.0370049 0.021956 0)
(0.0366876 0.0224822 0)
(0.0363628 0.0230038 0)
(0.0360307 0.0235207 0)
(0.0356911 0.0240328 0)
(0.0353443 0.02454 0)
(0.0349903 0.0250422 0)
(0.0346291 0.0255393 0)
(0.0342609 0.0260312 0)
(0.0338857 0.0265177 0)
(0.0335036 0.0269989 0)
(0.0331146 0.0274746 0)
(0.0327189 0.0279446 0)
(0.0323166 0.028409 0)
(0.0319076 0.0288675 0)
(0.0314921 0.0293202 0)
(0.0310703 0.0297669 0)
(0.030642 0.0302076 0)
(0.0302076 0.030642 0)
(0.0297669 0.0310703 0)
(0.0293202 0.0314921 0)
(0.0288675 0.0319076 0)
(0.028409 0.0323166 0)
(0.0279446 0.0327189 0)
(0.0274746 0.0331146 0)
(0.0269989 0.0335036 0)
(0.0265177 0.0338857 0)
(0.0260312 0.0342609 0)
(0.0255393 0.0346291 0)
(0.0250422 0.0349903 0)
(0.02454 0.0353443 0)
(0.0240328 0.0356911 0)
(0.0235207 0.0360307 0)
(0.0230038 0.0363628 0)
(0.0224822 0.0366876 0)
(0.021956 0.0370049 0)
(0.0214254 0.0373147 0)
(0.0208904 0.0376168 0)
(0.0203511 0.0379113 0)
(0.0198077 0.038198 0)
(0.0192602 0.038477 0)
(0.0187088 0.0387481 0)
(0.0181536 0.0390113 0)
(0.0175947 0.0392665 0)
(0.0170322 0.0395137 0)
(0.0164662 0.0397529 0)
(0.0158969 0.039984 0)
(0.0153243 0.0402069 0)
(0.0147486 0.0404217 0)
(0.0141699 0.0406281 0)
(0.0135883 0.0408263 0)
(0.0130039 0.0410162 0)
(0.0124169 0.0411977 0)
(0.0118274 0.0413708 0)
(0.0112354 0.0415355 0)
(0.0106412 0.0416917 0)
(0.0100447 0.0418394 0)
(0.00944628 0.0419786 0)
(0.00884588 0.0421092 0)
(0.00824369 0.0422312 0)
(0.00763981 0.0423446 0)
(0.00703437 0.0424494 0)
(0.0064275 0.0425455 0)
(0.00581931 0.0426329 0)
(0.00520994 0.0427117 0)
(0.00459951 0.0427817 0)
(0.00398814 0.042843 0)
(0.00337596 0.0428956 0)
(0.00276309 0.0429395 0)
(0.00214965 0.0429745 0)
(0.00153578 0.0430008 0)
(0.000921593 0.0430184 0)
(0.000307218 0.0430272 0)
(0.0428102 0.000305669 0)
(0.0428015 0.000916946 0)
(0.042784 0.00152804 0)
(0.0427578 0.00213881 0)
(0.0427229 0.00274915 0)
(0.0426793 0.00335894 0)
(0.042627 0.00396803 0)
(0.042566 0.00457632 0)
(0.0424963 0.00518367 0)
(0.042418 0.00578997 0)
(0.042331 0.00639509 0)
(0.0422353 0.0069989 0)
(0.0421311 0.00760128 0)
(0.0420182 0.00820212 0)
(0.0418968 0.00880128 0)
(0.0417669 0.00939865 0)
(0.0416284 0.0099941 0)
(0.0414815 0.0105875 0)
(0.0413261 0.0111788 0)
(0.0411622 0.0117677 0)
(0.04099 0.0123543 0)
(0.0408094 0.0129384 0)
(0.0406205 0.0135198 0)
(0.0404233 0.0140985 0)
(0.0402178 0.0146742 0)
(0.0400042 0.015247 0)
(0.0397824 0.0158167 0)
(0.0395525 0.0163832 0)
(0.0393145 0.0169463 0)
(0.0390685 0.017506 0)
(0.0388146 0.018062 0)
(0.0385527 0.0186145 0)
(0.0382829 0.0191631 0)
(0.0380054 0.0197078 0)
(0.0377201 0.0202485 0)
(0.0374271 0.020785 0)
(0.0371265 0.0213173 0)
(0.0368183 0.0218453 0)
(0.0365026 0.0223688 0)
(0.0361795 0.0228878 0)
(0.035849 0.0234021 0)
(0.0355112 0.0239116 0)
(0.0351661 0.0244163 0)
(0.0348139 0.0249159 0)
(0.0344545 0.0254105 0)
(0.0340882 0.0258999 0)
(0.0337148 0.026384 0)
(0.0333347 0.0268628 0)
(0.0329477 0.027336 0)
(0.032554 0.0278037 0)
(0.0321536 0.0282657 0)
(0.0317467 0.028722 0)
(0.0313334 0.0291724 0)
(0.0309136 0.0296168 0)
(0.0304875 0.0300552 0)
(0.0300552 0.0304875 0)
(0.0296168 0.0309136 0)
(0.0291724 0.0313334 0)
(0.028722 0.0317467 0)
(0.0282657 0.0321536 0)
(0.0278037 0.032554 0)
(0.027336 0.0329477 0)
(0.0268628 0.0333347 0)
(0.026384 0.0337148 0)
(0.0258999 0.0340882 0)
(0.0254105 0.0344545 0)
(0.0249159 0.0348139 0)
(0.0244163 0.0351661 0)
(0.0239116 0.0355112 0)
(0.0234021 0.035849 0)
(0.0228878 0.0361795 0)
(0.0223688 0.0365026 0)
(0.0218453 0.0368183 0)
(0.0213173 0.0371265 0)
(0.020785 0.0374271 0)
(0.0202485 0.0377201 0)
(0.0197078 0.0380054 0)
(0.0191631 0.0382829 0)
(0.0186145 0.0385527 0)
(0.018062 0.0388146 0)
(0.017506 0.0390685 0)
(0.0169463 0.0393145 0)
(0.0163832 0.0395525 0)
(0.0158167 0.0397824 0)
(0.015247 0.0400042 0)
(0.0146742 0.0402178 0)
(0.0140985 0.0404233 0)
(0.0135198 0.0406205 0)
(0.0129384 0.0408094 0)
(0.0123543 0.04099 0)
(0.0117677 0.0411622 0)
(0.0111788 0.0413261 0)
(0.0105875 0.0414815 0)
(0.0099941 0.0416284 0)
(0.00939865 0.0417669 0)
(0.00880128 0.0418968 0)
(0.00820212 0.0420182 0)
(0.00760128 0.0421311 0)
(0.0069989 0.0422353 0)
(0.00639509 0.042331 0)
(0.00578997 0.042418 0)
(0.00518367 0.0424963 0)
(0.00457632 0.042566 0)
(0.00396803 0.042627 0)
(0.00335894 0.0426793 0)
(0.00274915 0.0427229 0)
(0.00213881 0.0427578 0)
(0.00152804 0.042784 0)
(0.000916946 0.0428015 0)
(0.000305669 0.0428102 0)
(0.0425974 0.00030415 0)
(0.0425887 0.000912388 0)
(0.0425714 0.00152044 0)
(0.0425453 0.00212818 0)
(0.0425106 0.00273549 0)
(0.0424672 0.00334224 0)
(0.0424151 0.00394831 0)
(0.0423544 0.00455357 0)
(0.0422851 0.00515791 0)
(0.0422071 0.00576119 0)
(0.0421206 0.0063633 0)
(0.0420254 0.00696411 0)
(0.0419217 0.0075635 0)
(0.0418094 0.00816135 0)
(0.0416886 0.00875753 0)
(0.0415593 0.00935193 0)
(0.0414215 0.00994442 0)
(0.0412753 0.0105349 0)
(0.0411206 0.0111232 0)
(0.0409576 0.0117093 0)
(0.0407862 0.0122929 0)
(0.0406065 0.0128741 0)
(0.0404186 0.0134526 0)
(0.0402223 0.0140284 0)
(0.0400179 0.0146013 0)
(0.0398054 0.0151712 0)
(0.0395847 0.0157381 0)
(0.0393559 0.0163017 0)
(0.0391191 0.0168621 0)
(0.0388743 0.0174189 0)
(0.0386216 0.0179723 0)
(0.0383611 0.0185219 0)
(0.0380927 0.0190678 0)
(0.0378165 0.0196098 0)
(0.0375326 0.0201478 0)
(0.0372411 0.0206817 0)
(0.036942 0.0212114 0)
(0.0366353 0.0217367 0)
(0.0363212 0.0222577 0)
(0.0359997 0.022774 0)
(0.0356708 0.0232858 0)
(0.0353346 0.0237928 0)
(0.0349913 0.0242949 0)
(0.0346408 0.0247921 0)
(0.0342833 0.0252842 0)
(0.0339187 0.0257712 0)
(0.0335473 0.0262529 0)
(0.033169 0.0267292 0)
(0.0327839 0.0272002 0)
(0.0323922 0.0276655 0)
(0.0319938 0.0281252 0)
(0.0315889 0.0285792 0)
(0.0311776 0.0290274 0)
(0.0307599 0.0294696 0)
(0.030336 0.0299059 0)
(0.0299059 0.030336 0)
(0.0294696 0.0307599 0)
(0.0290274 0.0311776 0)
(0.0285792 0.0315889 0)
(0.0281252 0.0319938 0)
(0.0276655 0.0323922 0)
(0.0272002 0.0327839 0)
(0.0267292 0.033169 0)
(0.0262529 0.0335473 0)
(0.0257712 0.0339187 0)
(0.0252842 0.0342833 0)
(0.0247921 0.0346408 0)
(0.0242949 0.0349913 0)
(0.0237928 0.0353346 0)
(0.0232858 0.0356708 0)
(0.022774 0.0359997 0)
(0.0222577 0.0363212 0)
(0.0217367 0.0366353 0)
(0.0212114 0.036942 0)
(0.0206817 0.0372411 0)
(0.0201478 0.0375326 0)
(0.0196098 0.0378165 0)
(0.0190678 0.0380927 0)
(0.0185219 0.0383611 0)
(0.0179723 0.0386216 0)
(0.0174189 0.0388743 0)
(0.0168621 0.0391191 0)
(0.0163017 0.0393559 0)
(0.0157381 0.0395847 0)
(0.0151712 0.0398054 0)
(0.0146013 0.0400179 0)
(0.0140284 0.0402223 0)
(0.0134526 0.0404186 0)
(0.0128741 0.0406065 0)
(0.0122929 0.0407862 0)
(0.0117093 0.0409576 0)
(0.0111232 0.0411206 0)
(0.0105349 0.0412753 0)
(0.00994442 0.0414215 0)
(0.00935193 0.0415593 0)
(0.00875753 0.0416886 0)
(0.00816135 0.0418094 0)
(0.0075635 0.0419217 0)
(0.00696411 0.0420254 0)
(0.0063633 0.0421206 0)
(0.00576119 0.0422071 0)
(0.00515791 0.0422851 0)
(0.00455357 0.0423544 0)
(0.00394831 0.0424151 0)
(0.00334224 0.0424672 0)
(0.00273549 0.0425106 0)
(0.00212818 0.0425453 0)
(0.00152044 0.0425714 0)
(0.000912388 0.0425887 0)
(0.00030415 0.0425974 0)
(0.0423886 0.000302659 0)
(0.04238 0.000907915 0)
(0.0423627 0.00151299 0)
(0.0423367 0.00211775 0)
(0.0423022 0.00272208 0)
(0.042259 0.00332586 0)
(0.0422072 0.00392895 0)
(0.0421468 0.00453125 0)
(0.0420778 0.00513262 0)
(0.0420002 0.00573295 0)
(0.0419141 0.00633211 0)
(0.0418194 0.00692997 0)
(0.0417162 0.00752642 0)
(0.0416044 0.00812134 0)
(0.0414842 0.0087146 0)
(0.0413556 0.00930609 0)
(0.0412185 0.00989567 0)
(0.0410729 0.0104832 0)
(0.0409191 0.0110687 0)
(0.0407568 0.0116518 0)
(0.0405863 0.0122326 0)
(0.0404075 0.012811 0)
(0.0402204 0.0133866 0)
(0.0400252 0.0139596 0)
(0.0398218 0.0145297 0)
(0.0396102 0.0150969 0)
(0.0393906 0.0156609 0)
(0.039163 0.0162218 0)
(0.0389273 0.0167794 0)
(0.0386838 0.0173336 0)
(0.0384323 0.0178842 0)
(0.038173 0.0184311 0)
(0.0379059 0.0189744 0)
(0.0376311 0.0195137 0)
(0.0373486 0.0200491 0)
(0.0370585 0.0205803 0)
(0.0367609 0.0211074 0)
(0.0364557 0.0216302 0)
(0.0361431 0.0221485 0)
(0.0358232 0.0226624 0)
(0.0354959 0.0231716 0)
(0.0351614 0.0236761 0)
(0.0348198 0.0241758 0)
(0.034471 0.0246705 0)
(0.0341152 0.0251603 0)
(0.0337524 0.0256448 0)
(0.0333828 0.0261242 0)
(0.0330064 0.0265982 0)
(0.0326232 0.0270668 0)
(0.0322334 0.0275299 0)
(0.031837 0.0279874 0)
(0.0314341 0.0284391 0)
(0.0310248 0.0288851 0)
(0.0306091 0.0293252 0)
(0.0301873 0.0297593 0)
(0.0297593 0.0301873 0)
(0.0293252 0.0306091 0)
(0.0288851 0.0310248 0)
(0.0284391 0.0314341 0)
(0.0279874 0.031837 0)
(0.0275299 0.0322334 0)
(0.0270668 0.0326232 0)
(0.0265982 0.0330064 0)
(0.0261242 0.0333828 0)
(0.0256448 0.0337524 0)
(0.0251603 0.0341152 0)
(0.0246705 0.034471 0)
(0.0241758 0.0348198 0)
(0.0236761 0.0351614 0)
(0.0231716 0.0354959 0)
(0.0226624 0.0358232 0)
(0.0221485 0.0361431 0)
(0.0216302 0.0364557 0)
(0.0211074 0.0367609 0)
(0.0205803 0.0370585 0)
(0.0200491 0.0373486 0)
(0.0195137 0.0376311 0)
(0.0189744 0.0379059 0)
(0.0184311 0.038173 0)
(0.0178842 0.0384323 0)
(0.0173336 0.0386838 0)
(0.0167794 0.0389273 0)
(0.0162218 0.039163 0)
(0.0156609 0.0393906 0)
(0.0150969 0.0396102 0)
(0.0145297 0.0398218 0)
(0.0139596 0.0400252 0)
(0.0133866 0.0402204 0)
(0.012811 0.0404075 0)
(0.0122326 0.0405863 0)
(0.0116518 0.0407568 0)
(0.0110687 0.0409191 0)
(0.0104832 0.0410729 0)
(0.00989567 0.0412185 0)
(0.00930609 0.0413556 0)
(0.0087146 0.0414842 0)
(0.00812134 0.0416044 0)
(0.00752642 0.0417162 0)
(0.00692997 0.0418194 0)
(0.00633211 0.0419141 0)
(0.00573295 0.0420002 0)
(0.00513262 0.0420778 0)
(0.00453125 0.0421468 0)
(0.00392895 0.0422072 0)
(0.00332586 0.042259 0)
(0.00272208 0.0423022 0)
(0.00211775 0.0423367 0)
(0.00151299 0.0423627 0)
(0.000907915 0.04238 0)
(0.000302659 0.0423886 0)
(0.0421838 0.000301197 0)
(0.0421752 0.000903529 0)
(0.042158 0.00150568 0)
(0.0421322 0.00210752 0)
(0.0420978 0.00270893 0)
(0.0420548 0.00330979 0)
(0.0420033 0.00390997 0)
(0.0419432 0.00450936 0)
(0.0418745 0.00510783 0)
(0.0417973 0.00570525 0)
(0.0417116 0.00630151 0)
(0.0416173 0.00689649 0)
(0.0415146 0.00749006 0)
(0.0414034 0.00808211 0)
(0.0412838 0.0086725 0)
(0.0411558 0.00926113 0)
(0.0410193 0.00984787 0)
(0.0408745 0.0104326 0)
(0.0407214 0.0110152 0)
(0.0405599 0.0115956 0)
(0.0403902 0.0121735 0)
(0.0402123 0.0127491 0)
(0.0400261 0.013322 0)
(0.0398318 0.0138922 0)
(0.0396294 0.0144595 0)
(0.0394189 0.0150239 0)
(0.0392003 0.0155853 0)
(0.0389738 0.0161435 0)
(0.0387393 0.0166983 0)
(0.0384969 0.0172498 0)
(0.0382466 0.0177978 0)
(0.0379886 0.0183421 0)
(0.0377228 0.0188827 0)
(0.0374493 0.0194194 0)
(0.0371682 0.0199522 0)
(0.0368795 0.0204809 0)
(0.0365833 0.0210054 0)
(0.0362796 0.0215257 0)
(0.0359685 0.0220415 0)
(0.0356501 0.0225529 0)
(0.0353244 0.0230597 0)
(0.0349916 0.0235617 0)
(0.0346515 0.024059 0)
(0.0343045 0.0245513 0)
(0.0339504 0.0250387 0)
(0.0335894 0.0255209 0)
(0.0332215 0.025998 0)
(0.0328469 0.0264697 0)
(0.0324656 0.026936 0)
(0.0320776 0.0273969 0)
(0.0316832 0.0278522 0)
(0.0312822 0.0283017 0)
(0.0308749 0.0287455 0)
(0.0304613 0.0291835 0)
(0.0300414 0.0296155 0)
(0.0296155 0.0300414 0)
(0.0291835 0.0304613 0)
(0.0287455 0.0308749 0)
(0.0283017 0.0312822 0)
(0.0278522 0.0316832 0)
(0.0273969 0.0320776 0)
(0.026936 0.0324656 0)
(0.0264697 0.0328469 0)
(0.025998 0.0332215 0)
(0.0255209 0.0335894 0)
(0.0250387 0.0339504 0)
(0.0245513 0.0343045 0)
(0.024059 0.0346515 0)
(0.0235617 0.0349916 0)
(0.0230597 0.0353244 0)
(0.0225529 0.0356501 0)
(0.0220415 0.0359685 0)
(0.0215257 0.0362796 0)
(0.0210054 0.0365833 0)
(0.0204809 0.0368795 0)
(0.0199522 0.0371682 0)
(0.0194194 0.0374493 0)
(0.0188827 0.0377228 0)
(0.0183421 0.0379886 0)
(0.0177978 0.0382466 0)
(0.0172498 0.0384969 0)
(0.0166983 0.0387393 0)
(0.0161435 0.0389738 0)
(0.0155853 0.0392003 0)
(0.0150239 0.0394189 0)
(0.0144595 0.0396294 0)
(0.0138922 0.0398318 0)
(0.013322 0.0400261 0)
(0.0127491 0.0402123 0)
(0.0121735 0.0403902 0)
(0.0115956 0.0405599 0)
(0.0110152 0.0407214 0)
(0.0104326 0.0408745 0)
(0.00984787 0.0410193 0)
(0.00926113 0.0411558 0)
(0.0086725 0.0412838 0)
(0.00808211 0.0414034 0)
(0.00749006 0.0415146 0)
(0.00689649 0.0416173 0)
(0.00630151 0.0417116 0)
(0.00570525 0.0417973 0)
(0.00510783 0.0418745 0)
(0.00450936 0.0419432 0)
(0.00390997 0.0420033 0)
(0.00330979 0.0420548 0)
(0.00270893 0.0420978 0)