/*--------------------------------*- C++ -*----------------------------------*\
| =========                 |                                                 |
| \\      /  F ield         | OpenFOAM: The Open Source CFD Toolbox           |
|  \\    /   O peration     | Version:  2312                                  |
|   \\  /    A nd           | Website:  www.openfoam.com                      |
|    \\/     M anipulation  |                                                 |
\*---------------------------------------------------------------------------*/
FoamFile
{
    version     2.0;
    format      ascii;
    arch        "LSB;label=32;scalar=64";
    class       volTensorField;
    location    "40";
    object      F;
}
// * * * * * * * * * * * * * * * * * * * * * * * * * * * * * * * * * * * * * //

dimensions      [0 0 0 0 0 0 0];

internalField   nonuniform List<tensor> 
12870
(
(0.904547 -0.00189563 2.91707e-20 -0.00189563 1.17002 -9.31606e-18 0 0 1)
(0.904655 -0.00568535 -5.39995e-18 -0.00568535 1.16992 4.5434e-18 0 0 1)
(0.904871 -0.00947042 7.67984e-18 -0.00947042 1.1697 9.59626e-18 0 0 1)
(0.905196 -0.0132478 2.5136e-19 -0.0132478 1.16937 -4.65127e-18 0 0 1)
(0.905628 -0.0170143 -2.9723e-18 -0.0170143 1.16894 4.47639e-18 0 0 1)
(0.906167 -0.020767 8.02998e-18 -0.020767 1.1684 6.31973e-19 0 0 1)
(0.906814 -0.0245027 -2.23544e-18 -0.0245027 1.16776 -4.88625e-18 0 0 1)
(0.907567 -0.0282185 4.8845e-18 -0.0282185 1.167 5.21e-18 0 0 1)
(0.908426 -0.0319112 -1.128e-18 -0.0319112 1.16614 9.24749e-18 0 0 1)
(0.909389 -0.0355779 4.69673e-18 -0.0355779 1.16518 5.34231e-18 0 0 1)
(0.910457 -0.0392156 6.01158e-18 -0.0392156 1.16411 -3.80268e-18 0 0 1)
(0.911629 -0.0428213 5.67027e-18 -0.0428213 1.16294 -1.79465e-17 0 0 1)
(0.912903 -0.0463921 -1.05078e-17 -0.0463921 1.16167 -1.89582e-18 0 0 1)
(0.914279 -0.049925 -2.75738e-18 -0.049925 1.16029 -5.38251e-19 0 0 1)
(0.915754 -0.0534173 -4.23055e-18 -0.0534173 1.15882 -5.6484e-18 0 0 1)
(0.917329 -0.0568659 -8.34919e-18 -0.0568659 1.15724 1.24447e-17 0 0 1)
(0.919002 -0.0602682 -1.10555e-18 -0.0602682 1.15557 4.52496e-18 0 0 1)
(0.920771 -0.0636213 2.6136e-18 -0.0636213 1.1538 6.67081e-19 0 0 1)
(0.922636 -0.0669225 3.80207e-18 -0.0669225 1.15193 -3.79696e-18 0 0 1)
(0.924593 -0.0701692 1.29832e-18 -0.0701692 1.14998 -4.47346e-18 0 0 1)
(0.926643 -0.0733586 0 -0.0733586 1.14793 0 0 0 1)
(0.928783 -0.0764882 -3.96119e-18 -0.0764882 1.14579 3.63065e-18 0 0 1)
(0.931012 -0.0795553 -2.942e-18 -0.0795553 1.14356 8.8393e-18 0 0 1)
(0.933327 -0.0825577 4.02799e-18 -0.0825577 1.14124 -3.52835e-18 0 0 1)
(0.935727 -0.0854926 6.9432e-19 -0.0854926 1.13884 -9.66345e-18 0 0 1)
(0.938209 -0.0883579 1.75807e-18 -0.0883579 1.13636 1.06398e-17 0 0 1)
(0.940773 -0.091151 8.3508e-18 -0.091151 1.1338 -6.70521e-18 0 0 1)
(0.943415 -0.0938699 -1.31551e-18 -0.0938699 1.13115 -1.06285e-17 0 0 1)
(0.946134 -0.0965122 -2.54566e-18 -0.0965122 1.12844 -1.09729e-18 0 0 1)
(0.948927 -0.0990757 -1.10919e-17 -0.0990757 1.12564 5.23843e-18 0 0 1)
(0.951792 -0.101558 -3.03745e-18 -0.101558 1.12278 1.91372e-17 0 0 1)
(0.954727 -0.103958 4.017e-18 -0.103958 1.11984 -8.40557e-18 0 0 1)
(0.95773 -0.106274 -2.76966e-19 -0.106274 1.11684 -5.34764e-18 0 0 1)
(0.960797 -0.108502 -4.55543e-18 -0.108502 1.11377 2.88481e-18 0 0 1)
(0.963927 -0.110642 4.56326e-18 -0.110642 1.11064 -2.83713e-18 0 0 1)
(0.967116 -0.112692 -8.03391e-20 -0.112692 1.10745 -5.37272e-18 0 0 1)
(0.970363 -0.114649 4.60642e-18 -0.114649 1.10421 -8.09758e-18 0 0 1)
(0.973664 -0.116514 1.46235e-19 -0.116514 1.10091 -1.07457e-17 0 0 1)
(0.977017 -0.118283 -1.40354e-17 -0.118283 1.09755 2.32522e-18 0 0 1)
(0.980419 -0.119956 -1.45202e-17 -0.119956 1.09415 1.28617e-17 0 0 1)
(0.983868 -0.121531 4.45488e-18 -0.121531 1.0907 2.90813e-18 0 0 1)
(0.98736 -0.123007 6.19557e-20 -0.123007 1.08721 4.17182e-20 0 0 1)
(0.990893 -0.124382 -9.12449e-19 -0.124382 1.08368 1.07078e-17 0 0 1)
(0.994464 -0.125656 5.39151e-18 -0.125656 1.08011 -7.59747e-18 0 0 1)
(0.998069 -0.126828 -2.11074e-18 -0.126828 1.0765 -1.55669e-18 0 0 1)
(1.00171 -0.127896 -1.37019e-18 -0.127896 1.07286 1.06589e-17 0 0 1)
(1.00537 -0.12886 0 -0.12886 1.0692 0 0 0 1)
(1.00907 -0.129718 7.91674e-18 -0.129718 1.0655 -5.58476e-18 0 0 1)
(1.01278 -0.130471 1.1897e-17 -0.130471 1.06179 -1.43393e-17 0 0 1)
(1.01652 -0.131118 -7.4641e-20 -0.131118 1.05805 -1.23151e-17 0 0 1)
(1.02027 -0.131657 -6.07765e-18 -0.131657 1.0543 -5.34276e-18 0 0 1)
(1.02404 -0.132089 -1.53344e-17 -0.132089 1.05053 4.97104e-18 0 0 1)
(1.02781 -0.132414 -4.42858e-18 -0.132414 1.04676 8.6055e-18 0 0 1)
(1.0316 -0.13263 -3.86854e-18 -0.13263 1.04297 -3.70626e-18 0 0 1)
(1.03539 -0.132739 -8.46114e-18 -0.132739 1.03918 4.74063e-18 0 0 1)
(1.03918 -0.132739 1.08525e-17 -0.132739 1.03539 4.37362e-18 0 0 1)
(1.04297 -0.13263 5.1672e-20 -0.13263 1.0316 5.39344e-20 0 0 1)
(1.04676 -0.132414 6.74201e-18 -0.132414 1.02781 -6.43011e-18 0 0 1)
(1.05053 -0.132089 -5.32878e-18 -0.132089 1.02404 -5.88996e-18 0 0 1)
(1.0543 -0.131657 -3.50898e-18 -0.131657 1.02027 1.01184e-17 0 0 1)
(1.05805 -0.131118 -5.23316e-18 -0.131118 1.01652 1.04503e-18 0 0 1)
(1.06179 -0.130471 8.7966e-18 -0.130471 1.01278 -3.98756e-18 0 0 1)
(1.0655 -0.129718 -1.3452e-18 -0.129718 1.00907 -9.09279e-18 0 0 1)
(1.0692 -0.12886 -7.73769e-18 -0.12886 1.00537 1.2787e-17 0 0 1)
(1.07286 -0.127896 1.65445e-18 -0.127896 1.00171 2.17751e-18 0 0 1)
(1.0765 -0.126828 -2.21667e-20 -0.126828 0.998069 -3.00561e-20 0 0 1)
(1.08011 -0.125656 5.3686e-18 -0.125656 0.994464 -5.02259e-19 0 0 1)
(1.08368 -0.124382 2.27716e-18 -0.124382 0.990893 -4.8876e-18 0 0 1)
(1.08721 -0.123007 1.15808e-17 -0.123007 0.98736 -7.82049e-18 0 0 1)
(1.0907 -0.121531 -1.36377e-17 -0.121531 0.983868 -3.84858e-18 0 0 1)
(1.09415 -0.119956 -6.49073e-18 -0.119956 0.980419 7.1654e-18 0 0 1)
(1.09755 -0.118283 7.96274e-18 -0.118283 0.977017 -4.83577e-18 0 0 1)
(1.10091 -0.116514 -5.24008e-18 -0.116514 0.973664 9.42539e-18 0 0 1)
(1.10421 -0.114649 -4.06739e-18 -0.114649 0.970363 2.27082e-18 0 0 1)
(1.10745 -0.112692 8.1444e-18 -0.112692 0.967116 -4.52297e-18 0 0 1)
(1.11064 -0.110642 2.83713e-18 -0.110642 0.963927 -4.56326e-18 0 0 1)
(1.11377 -0.108502 -1.24172e-18 -0.108502 0.960797 -2.39458e-18 0 0 1)
(1.11684 -0.106274 -4.15696e-18 -0.106274 0.95773 2.10171e-18 0 0 1)
(1.11984 -0.103958 3.50225e-18 -0.103958 0.954727 7.25356e-18 0 0 1)
(1.12278 -0.101558 1.57563e-20 -0.101558 0.951792 3.38595e-20 0 0 1)
(1.12564 -0.0990757 9.57402e-18 -0.0990757 0.948927 -1.41602e-18 0 0 1)
(1.12844 -0.0965122 -1.06314e-17 -0.0965122 0.946134 -1.12931e-18 0 0 1)
(1.13115 -0.0938699 3.02527e-18 -0.0938699 0.943415 7.30366e-18 0 0 1)
(1.1338 -0.0911511 1.0044e-17 -0.091151 0.940773 -1.25609e-17 0 0 1)
(1.13636 -0.0883579 -8.71849e-18 -0.0883579 0.938209 3.28296e-18 0 0 1)
(1.13884 -0.0854926 -4.36944e-18 -0.0854926 0.935727 1.61415e-18 0 0 1)
(1.14124 -0.0825577 -7.90809e-18 -0.0825577 0.933327 5.61484e-18 0 0 1)
(1.14356 -0.0795553 1.40813e-17 -0.0795553 0.931012 -1.94224e-18 0 0 1)
(1.14579 -0.0764882 4.51468e-20 -0.0764882 0.928783 1.42399e-19 0 0 1)
(1.14793 -0.0733586 -8.17363e-18 -0.0733586 0.926643 5.16374e-18 0 0 1)
(1.14998 -0.0701692 -7.20912e-19 -0.0701692 0.924593 -2.52167e-18 0 0 1)
(1.15193 -0.0669225 1.38916e-18 -0.0669225 0.922636 5.13551e-18 0 0 1)
(1.1538 -0.0636213 1.80533e-17 -0.0636213 0.920771 -4.60783e-18 0 0 1)
(1.15557 -0.0602682 -1.02919e-17 -0.0602682 0.919002 -2.96198e-18 0 0 1)
(1.15724 -0.0568659 -1.81939e-17 -0.0568659 0.917329 4.01755e-18 0 0 1)
(1.15882 -0.0534173 1.13275e-17 -0.0534173 0.915754 8.6073e-18 0 0 1)
(1.16029 -0.049925 4.06568e-18 -0.049925 0.914279 -3.48485e-18 0 0 1)
(1.16167 -0.0463921 -9.16801e-18 -0.0463921 0.912903 1.65409e-18 0 0 1)
(1.16294 -0.0428213 5.02717e-18 -0.0428213 0.911629 1.84432e-18 0 0 1)
(1.16411 -0.0392156 1.80201e-17 -0.0392156 0.910457 -5.45035e-18 0 0 1)
(1.16518 -0.0355779 -4.60259e-18 -0.0355779 0.909389 7.22476e-19 0 0 1)
(1.16614 -0.0319112 -1.42046e-17 -0.0319112 0.908426 -1.04114e-18 0 0 1)
(1.167 -0.0282185 0 -0.0282185 0.907567 0 0 0 1)
(1.16776 -0.0245027 4.63624e-18 -0.0245027 0.906814 -4.50328e-19 0 0 1)
(1.1684 -0.020767 1.39295e-17 -0.020767 0.906167 -1.11501e-18 0 0 1)
(1.16894 -0.0170143 -4.98884e-18 -0.0170143 0.905628 -4.99134e-18 0 0 1)
(1.16937 -0.0132478 -9.17337e-18 -0.0132478 0.905196 3.08484e-18 0 0 1)
(1.1697 -0.00947042 1.39645e-17 -0.00947042 0.904871 -5.17428e-19 0 0 1)
(1.16992 -0.00568535 -1.13947e-19 -0.00568535 0.904655 -5.31886e-18 0 0 1)
(1.17002 -0.00189563 -9.31606e-18 -0.00189563 0.904547 2.91707e-20 0 0 1)
(0.90654 -0.00185505 -2.67802e-18 -0.00185505 1.16633 -1.91214e-20 0 0 1)
(0.906646 -0.00556362 -5.14913e-18 -0.00556362 1.16623 -9.09956e-18 0 0 1)
(0.906858 -0.00926767 -1.97527e-21 -0.00926766 1.16602 -7.05172e-23 0 0 1)
(0.907176 -0.0129641 -6.91494e-19 -0.0129641 1.1657 1.3463e-17 0 0 1)
(0.907599 -0.0166501 -4.81533e-18 -0.0166501 1.16528 -9.31564e-18 0 0 1)
(0.908127 -0.0203224 2.70381e-18 -0.0203224 1.16475 2.12794e-19 0 0 1)
(0.908759 -0.0239781 -8.31167e-20 -0.0239781 1.16411 -7.73705e-21 0 0 1)
(0.909496 -0.0276143 5.84418e-20 -0.0276143 1.16338 6.2832e-21 0 0 1)
(0.910336 -0.031228 -3.81816e-18 -0.031228 1.16254 8.58807e-18 0 0 1)
(0.911279 -0.0348162 3.23014e-18 -0.0348162 1.16159 -4.09436e-18 0 0 1)
(0.912325 -0.038376 -4.88405e-20 -0.038376 1.16055 -7.37853e-21 0 0 1)
(0.913471 -0.0419045 6.46814e-18 -0.0419045 1.1594 1.01816e-17 0 0 1)
(0.914718 -0.0453988 -6.80505e-18 -0.0453989 1.15816 7.90452e-18 0 0 1)
(0.916064 -0.0488562 -9.17795e-19 -0.0488561 1.15681 -9.33597e-18 0 0 1)
(0.917508 -0.0522736 -7.74374e-18 -0.0522736 1.15537 -1.62673e-18 0 0 1)
(0.919049 -0.0556484 -9.91086e-19 -0.0556484 1.15382 4.38294e-18 0 0 1)
(0.920686 -0.0589779 2.09802e-18 -0.0589779 1.15219 -8.73887e-18 0 0 1)
(0.922418 -0.0622592 3.69973e-18 -0.0622592 1.15046 -3.69335e-18 0 0 1)
(0.924242 -0.0654897 -2.60902e-18 -0.0654897 1.14863 -7.05744e-19 0 0 1)
(0.926158 -0.0686669 -5.14986e-18 -0.0686669 1.14672 -1.47228e-18 0 0 1)
(0.928164 -0.071788 -1.27948e-18 -0.071788 1.14471 4.30763e-18 0 0 1)
(0.930258 -0.0748506 -6.45741e-18 -0.0748506 1.14262 2.66675e-18 0 0 1)
(0.932439 -0.0778521 2.54104e-18 -0.0778521 1.14044 8.4574e-19 0 0 1)
(0.934704 -0.0807901 2.50539e-18 -0.0807901 1.13817 8.73805e-19 0 0 1)
(0.937053 -0.0836623 2.07728e-18 -0.0836623 1.13582 -1.35922e-17 0 0 1)
(0.939482 -0.0864662 -8.6404e-19 -0.0864662 1.13339 -5.13823e-18 0 0 1)
(0.941991 -0.0891995 -9.11126e-19 -0.0891995 1.13088 9.3092e-18 0 0 1)
(0.944577 -0.0918602 -1.15543e-17 -0.0918602 1.1283 7.78994e-20 0 0 1)
(0.947237 -0.0944459 -4.23195e-18 -0.0944459 1.12564 3.06911e-18 0 0 1)
(0.949971 -0.0969545 1.88864e-18 -0.0969545 1.1229 -4.07782e-18 0 0 1)
(0.952775 -0.0993841 2.96455e-18 -0.0993841 1.1201 6.33583e-18 0 0 1)
(0.955647 -0.101733 2.82085e-18 -0.101733 1.11723 6.35196e-18 0 0 1)
(0.958585 -0.103998 5.43288e-20 -0.103998 1.11429 2.71951e-20 0 0 1)
(0.961586 -0.106179 2.04249e-18 -0.106179 1.11129 -4.00268e-18 0 0 1)
(0.964649 -0.108273 2.15123e-18 -0.108273 1.10822 -3.94531e-18 0 0 1)
(0.96777 -0.110279 -9.93167e-21 -0.110279 1.1051 -5.51552e-21 0 0 1)
(0.970947 -0.112195 2.25316e-18 -0.112195 1.10193 -3.88793e-18 0 0 1)
(0.974178 -0.114019 -9.11879e-18 -0.114019 1.0987 5.03962e-18 0 0 1)
(0.977459 -0.115751 -9.2092e-18 -0.115751 1.09541 4.89702e-18 0 0 1)
(0.980789 -0.117388 4.81601e-18 -0.117388 1.09209 -7.58787e-18 0 0 1)
(0.984163 -0.118929 1.38718e-17 -0.118929 1.08871 -1.67718e-18 0 0 1)
(0.987581 -0.120373 0 -0.120373 1.08529 0 0 0 1)
(0.991038 -0.121719 -7.36875e-19 -0.121719 1.08184 1.04294e-17 0 0 1)
(0.994532 -0.122966 -2.65923e-18 -0.122966 1.07834 3.62268e-18 0 0 1)
(0.998061 -0.124112 5.35419e-18 -0.124112 1.07481 -7.21823e-18 0 0 1)
(1.00162 -0.125158 -4.8472e-18 -0.125158 1.07125 1.96064e-18 0 0 1)
(1.00521 -0.126101 1.40617e-18 -0.126101 1.06767 6.80641e-18 0 0 1)
(1.00882 -0.126941 5.61995e-18 -0.126941 1.06405 -7.0133e-18 0 0 1)
(1.01246 -0.127678 -4.09438e-18 -0.127678 1.06042 -3.39702e-18 0 0 1)
(1.01611 -0.12831 -2.87573e-18 -0.12831 1.05676 3.45337e-18 0 0 1)
(1.01979 -0.128838 -5.97853e-18 -0.128838 1.05309 -5.25563e-18 0 0 1)
(1.02347 -0.129261 -2.9015e-18 -0.129261 1.0494 -8.68478e-18 0 0 1)
(1.02717 -0.129579 -5.00059e-18 -0.129579 1.0457 1.48397e-18 0 0 1)
(1.03087 -0.129791 -1.00753e-17 -0.129791 1.042 2.79338e-18 0 0 1)
(1.03458 -0.129897 1.2585e-17 -0.129897 1.03829 -1.28335e-17 0 0 1)
(1.03829 -0.129897 1.0167e-17 -0.129897 1.03458 -2.48835e-18 0 0 1)
(1.042 -0.129791 -2.03899e-17 -0.129791 1.03087 4.69938e-18 0 0 1)
(1.0457 -0.129579 -1.50079e-18 -0.129579 1.02717 4.98251e-18 0 0 1)
(1.0494 -0.129261 -4.72734e-19 -0.129261 1.02347 -1.39183e-17 0 0 1)
(1.05309 -0.128838 3.52756e-18 -0.128838 1.01979 4.01277e-18 0 0 1)
(1.05676 -0.12831 -1.02964e-17 -0.12831 1.01611 1.78262e-18 0 0 1)
(1.06042 -0.127678 5.09128e-18 -0.127678 1.01246 6.13643e-18 0 0 1)
(1.06405 -0.126941 2.00303e-18 -0.126941 1.00882 -1.18373e-17 0 0 1)
(1.06767 -0.126101 5.16994e-18 -0.126101 1.00521 -6.84988e-19 0 0 1)
(1.07125 -0.125158 -5.52892e-18 -0.125158 1.00162 7.57851e-18 0 0 1)
(1.07481 -0.124112 6.31548e-18 -0.124112 0.998061 8.56326e-18 0 0 1)
(1.07834 -0.122966 -1.53103e-18 -0.122966 0.994532 -2.13924e-18 0 0 1)
(1.08184 -0.121719 -2.70437e-20 -0.121719 0.991038 -3.89503e-20 0 0 1)
(1.08529 -0.120373 -2.95133e-18 -0.120373 0.987581 -4.38303e-18 0 0 1)
(1.08871 -0.118929 -8.13018e-18 -0.118929 0.984163 -4.23389e-18 0 0 1)
(1.09209 -0.117388 7.5818e-18 -0.117388 0.980789 -4.82561e-18 0 0 1)
(1.09541 -0.115751 1.00855e-17 -0.115751 0.977459 -9.34251e-18 0 0 1)
(1.0987 -0.114019 -1.04322e-17 -0.114019 0.974178 3.00527e-20 0 0 1)
(1.10193 -0.112195 -9.06855e-18 -0.112195 0.970947 1.12794e-17 0 0 1)
(1.1051 -0.110279 5.23743e-18 -0.110279 0.96777 1.75386e-19 0 0 1)
(1.10822 -0.108273 1.16811e-20 -0.108273 0.964649 2.17604e-20 0 0 1)
(1.11129 -0.106179 3.99222e-18 -0.106179 0.961586 -2.06266e-18 0 0 1)
(1.11429 -0.103998 1.20468e-17 -0.103998 0.958585 -6.05035e-18 0 0 1)
(1.11723 -0.101733 1.16358e-18 -0.101733 0.955647 2.40991e-18 0 0 1)
(1.1201 -0.0993841 -5.90361e-18 -0.0993841 0.952775 8.61514e-18 0 0 1)
(1.1229 -0.0969545 1.085e-18 -0.0969545 0.949971 2.42142e-18 0 0 1)
(1.12564 -0.0944459 -3.16071e-18 -0.0944459 0.947237 -7.33268e-18 0 0 1)
(1.1283 -0.0918602 -3.14813e-18 -0.0918602 0.944577 4.14206e-18 0 0 1)
(1.13088 -0.0891995 1.40519e-20 -0.0891995 0.941991 3.53434e-20 0 0 1)
(1.13339 -0.0864662 4.20537e-18 -0.0864662 0.939482 -1.58352e-18 0 0 1)
(1.13582 -0.0836623 -9.17957e-19 -0.0836623 0.937053 -2.51585e-18 0 0 1)
(1.13817 -0.0807901 -4.24514e-18 -0.0807901 0.934704 1.47352e-18 0 0 1)
(1.14044 -0.0778521 9.34244e-18 -0.0778521 0.932439 -3.88968e-19 0 0 1)
(1.14262 -0.0748506 3.26921e-20 -0.0748506 0.930258 1.03115e-19 0 0 1)
(1.14471 -0.071788 -1.21572e-17 -0.071788 0.928164 6.37895e-18 0 0 1)
(1.14672 -0.0686669 3.5862e-18 -0.0686669 0.926158 -3.80369e-18 0 0 1)
(1.14863 -0.0654897 7.12669e-18 -0.0654897 0.924242 9.13708e-18 0 0 1)
(1.15046 -0.0622592 -6.62309e-19 -0.0622592 0.922418 -2.5949e-18 0 0 1)
(1.15219 -0.0589779 -9.9693e-18 -0.0589779 0.920686 -3.02708e-18 0 0 1)
(1.15382 -0.0556484 9.33213e-18 -0.0556484 0.919049 5.34204e-19 0 0 1)
(1.15537 -0.0522736 5.50439e-18 -0.0522736 0.917508 4.34479e-18 0 0 1)
(1.15681 -0.0488562 -1.32367e-17 -0.0488562 0.916064 2.55391e-18 0 0 1)
(1.15816 -0.0453988 0 -0.0453989 0.914718 0 0 0 1)
(1.1594 -0.0419045 1.74725e-18 -0.0419045 0.913471 1.05439e-17 0 0 1)
(1.16055 -0.038376 1.33251e-17 -0.038376 0.912325 -2.0428e-18 0 0 1)
(1.16159 -0.0348162 -5.15963e-18 -0.0348162 0.911279 -4.57419e-18 0 0 1)
(1.16254 -0.031228 -1.30653e-17 -0.031228 0.910336 4.2257e-18 0 0 1)
(1.16338 -0.0276143 4.1835e-18 -0.0276143 0.909496 -3.12516e-18 0 0 1)
(1.16411 -0.0239781 4.22436e-18 -0.0239781 0.908759 -3.10101e-18 0 0 1)
(1.16475 -0.0203224 4.27104e-18 -0.0203224 0.908127 -3.00442e-18 0 0 1)
(1.16528 -0.0166501 -3.40779e-19 -0.0166501 0.907599 -5.29583e-18 0 0 1)
(1.1657 -0.0129641 1.32561e-19 -0.0129641 0.907176 2.65008e-18 0 0 1)
(1.16602 -0.00926766 0 -0.00926766 0.906858 0 0 0 1)
(1.16623 -0.00556362 -1.13662e-19 -0.00556362 0.906646 -5.30557e-18 0 0 1)
(1.16633 -0.00185505 0 -0.00185505 0.90654 0 0 0 1)
(0.909377 -0.00180955 3.76774e-20 -0.00180955 1.1628 -4.33768e-18 0 0 1)
(0.909481 -0.00542719 3.44761e-20 -0.00542719 1.1627 7.38569e-22 0 0 1)
(0.909687 -0.00904039 -1.04868e-17 -0.00904039 1.16249 -3.74538e-19 0 0 1)
(0.909997 -0.0126462 -5.42392e-18 -0.0126462 1.16218 4.07194e-18 0 0 1)
(0.91041 -0.0162417 7.83694e-18 -0.0162417 1.16177 5.04295e-19 0 0 1)
(0.910925 -0.019824 -4.4864e-18 -0.019824 1.16125 -9.05558e-18 0 0 1)
(0.911542 -0.0233901 -2.64523e-18 -0.0233901 1.16064 -2.46238e-19 0 0 1)
(0.91226 -0.0269371 -6.08075e-18 -0.0269371 1.15992 8.07191e-18 0 0 1)
(0.91308 -0.0304622 2.06054e-18 -0.0304622 1.1591 4.62133e-18 0 0 1)
(0.914 -0.0339624 5.27496e-18 -0.0339624 1.15818 7.20022e-19 0 0 1)
(0.91502 -0.0374349 1.90605e-18 -0.0374349 1.15716 -1.28732e-17 0 0 1)
(0.916138 -0.0408769 1.47313e-18 -0.0408769 1.15604 -8.54986e-18 0 0 1)
(0.917354 -0.0442855 2.05386e-18 -0.0442855 1.15482 1.8002e-17 0 0 1)
(0.918667 -0.047658 -8.81843e-19 -0.047658 1.15351 4.24757e-18 0 0 1)
(0.920076 -0.0509917 1.80701e-18 -0.0509917 1.1521 -8.48543e-18 0 0 1)
(0.92158 -0.0542837 5.1239e-18 -0.0542837 1.1506 1.15301e-18 0 0 1)
(0.923177 -0.0575315 2.52645e-18 -0.0575315 1.149 6.06546e-19 0 0 1)
(0.924865 -0.0607324 -1.02266e-18 -0.0607324 1.14731 4.21588e-18 0 0 1)
(0.926645 -0.0638837 -2.25242e-18 -0.0638837 1.14553 8.37819e-18 0 0 1)
(0.928514 -0.0669829 1.25229e-17 -0.0669829 1.14366 -5.44312e-18 0 0 1)
(0.930471 -0.0700275 6.6034e-20 -0.0700275 1.14171 1.99026e-20 0 0 1)
(0.932513 -0.073015 2.4667e-18 -0.073015 1.13966 7.82051e-19 0 0 1)
(0.934641 -0.0759429 8.89023e-18 -0.0759429 1.13754 -1.61284e-18 0 0 1)
(0.936851 -0.0788089 1.04107e-18 -0.0788089 1.13533 4.95719e-18 0 0 1)
(0.939142 -0.0816106 -2.47323e-18 -0.0816106 1.13304 -9.02406e-19 0 0 1)
(0.941512 -0.0843457 -4.85306e-18 -0.0843457 1.13067 -1.84967e-18 0 0 1)
(0.943959 -0.0870121 -1.56435e-18 -0.0870121 1.12822 4.04615e-18 0 0 1)
(0.946481 -0.0896074 1.23905e-20 -0.0896074 1.1257 5.13235e-21 0 0 1)
(0.949076 -0.0921297 9.25431e-18 -0.0921297 1.1231 -1.49056e-17 0 0 1)
(0.951743 -0.0945769 4.18945e-18 -0.0945769 1.12043 -2.87618e-18 0 0 1)
(0.954478 -0.0969469 -3.69152e-18 -0.0969469 1.1177 7.85118e-18 0 0 1)
(0.95728 -0.0992378 -4.31312e-20 -0.0992378 1.1149 -2.08251e-20 0 0 1)
(0.960146 -0.101448 4.0656e-19 -0.101448 1.11203 5.05445e-18 0 0 1)
(0.963074 -0.103575 -2.03345e-18 -0.103575 1.1091 3.83192e-18 0 0 1)
(0.966061 -0.105618 -2.58169e-18 -0.105618 1.10612 -6.3092e-18 0 0 1)
(0.969106 -0.107575 4.40179e-18 -0.107575 1.10307 -2.51735e-18 0 0 1)
(0.972205 -0.109443 0 -0.109443 1.09997 0 0 0 1)
(0.975356 -0.111223 4.52836e-18 -0.111223 1.09682 2.6868e-18 0 0 1)
(0.978557 -0.112912 4.44869e-18 -0.112912 1.09362 2.72616e-18 0 0 1)
(0.981805 -0.114509 4.56857e-18 -0.114509 1.09037 -7.37578e-18 0 0 1)
(0.985097 -0.116012 4.42678e-18 -0.116012 1.08708 2.88979e-18 0 0 1)
(0.98843 -0.117421 -4.87427e-18 -0.117421 1.08375 7.17704e-18 0 0 1)
(0.991803 -0.118734 -4.9196e-18 -0.118734 1.08037 7.14604e-18 0 0 1)
(0.995212 -0.11995 4.22574e-18 -0.11995 1.07697 3.02432e-18 0 0 1)
(0.998654 -0.121069 -4.64341e-18 -0.121069 1.07352 1.9654e-18 0 0 1)
(1.00213 -0.122088 -2.51683e-20 -0.122088 1.07005 -1.91226e-20 0 0 1)
(1.00563 -0.123008 6.85017e-18 -0.123008 1.06655 -1.47506e-19 0 0 1)
(1.00915 -0.123828 -7.50186e-18 -0.123828 1.06303 5.09667e-18 0 0 1)
(1.0127 -0.124547 1.1063e-17 -0.124547 1.05948 -1.33671e-17 0 0 1)
(1.01626 -0.125164 8.52407e-19 -0.125164 1.05591 -4.9766e-18 0 0 1)
(1.01985 -0.125679 -6.65357e-18 -0.125679 1.05233 1.14779e-17 0 0 1)
(1.02344 -0.126091 -9.4516e-19 -0.126091 1.04873 4.99457e-18 0 0 1)
(1.02705 -0.126401 -2.93344e-18 -0.126401 1.04513 3.19572e-18 0 0 1)
(1.03066 -0.126608 2.98846e-18 -0.126608 1.04152 -3.14423e-18 0 0 1)
(1.03428 -0.126711 9.82333e-18 -0.126711 1.0379 -2.49853e-18 0 0 1)
(1.0379 -0.126711 -1.28698e-17 -0.126711 1.03428 5.48178e-18 0 0 1)
(1.04152 -0.126608 -3.14953e-18 -0.126608 1.03066 2.98293e-18 0 0 1)
(1.04513 -0.126401 9.96832e-18 -0.126401 1.02705 -2.02506e-18 0 0 1)
(1.04873 -0.126091 1.4318e-18 -0.126091 1.02344 -4.88314e-18 0 0 1)
(1.05233 -0.125679 4.55356e-20 -0.125679 1.01985 5.17987e-20 0 0 1)
(1.05591 -0.125164 1.68058e-18 -0.125164 1.01626 1.9677e-18 0 0 1)
(1.05948 -0.124547 3.34085e-18 -0.124547 1.0127 -2.76686e-18 0 0 1)
(1.06303 -0.123828 -1.73649e-18 -0.123828 1.00915 4.75838e-18 0 0 1)
(1.06655 -0.123008 3.42027e-18 -0.123008 1.00563 -2.66807e-18 0 0 1)
(1.07005 -0.122088 1.03515e-17 -0.122088 1.00213 -7.88661e-18 0 0 1)
(1.07352 -0.121069 -3.85234e-18 -0.121069 0.998654 9.3932e-18 0 0 1)
(1.07697 -0.11995 -1.06048e-17 -0.11995 0.995212 7.54262e-18 0 0 1)
(1.08037 -0.118734 3.00901e-18 -0.118734 0.991803 4.3338e-18 0 0 1)
(1.08375 -0.117421 -2.93344e-18 -0.117421 0.98843 -4.35646e-18 0 0 1)
(1.08708 -0.116012 2.88403e-18 -0.116012 0.985097 4.41796e-18 0 0 1)
(1.09037 -0.114509 1.40187e-18 -0.114509 0.981805 2.21599e-18 0 0 1)
(1.09362 -0.112912 -2.72066e-18 -0.112912 0.978557 -4.43971e-18 0 0 1)
(1.09682 -0.111223 1.06629e-18 -0.111223 0.975356 -6.70393e-18 0 0 1)
(1.09997 -0.109443 1.01388e-17 -0.109443 0.972205 2.3469e-19 0 0 1)
(1.10307 -0.107575 1.26657e-18 -0.107575 0.969106 2.28068e-18 0 0 1)
(1.10612 -0.105618 -1.25653e-18 -0.105618 0.966061 -2.34073e-18 0 0 1)
(1.1091 -0.103575 1.20092e-18 -0.103575 0.963074 2.31592e-18 0 0 1)
(1.11203 -0.101448 -2.3569e-18 -0.101448 0.960146 -4.70849e-18 0 0 1)
(1.1149 -0.0992378 5.52907e-18 -0.0992378 0.95728 -8.50179e-18 0 0 1)
(1.1177 -0.0969469 8.89038e-21 -0.0969469 0.954478 1.91053e-20 0 0 1)
(1.12043 -0.0945769 -1.18828e-17 -0.0945769 0.951743 5.30561e-18 0 0 1)
(1.1231 -0.0921297 -7.95757e-18 -0.0921297 0.949076 3.45614e-18 0 0 1)
(1.1257 -0.0896074 1.20082e-17 -0.0896074 0.946481 -5.01545e-18 0 0 1)
(1.12822 -0.0870121 9.0462e-18 -0.0870121 0.943959 -7.29413e-19 0 0 1)
(1.13067 -0.0843457 -1.21664e-17 -0.0843457 0.941512 4.61858e-18 0 0 1)
(1.13304 -0.0816106 -5.87757e-18 -0.0816106 0.939142 -3.45331e-18 0 0 1)
(1.13533 -0.0788089 -1.72611e-18 -0.0788089 0.936851 -4.94912e-18 0 0 1)
(1.13754 -0.0759429 1.31626e-17 -0.0759429 0.934641 -1.66074e-18 0 0 1)
(1.13966 -0.073015 -1.56005e-18 -0.073015 0.932513 -4.92061e-18 0 0 1)
(1.14171 -0.0700275 -1.17151e-17 -0.0700275 0.930471 6.22658e-18 0 0 1)
(1.14366 -0.0669829 1.32217e-17 -0.0669829 0.928514 -1.09551e-18 0 0 1)
(1.14553 -0.0638837 1.45069e-20 -0.0638837 0.926645 5.36292e-20 0 0 1)
(1.14731 -0.0607324 -9.71949e-18 -0.0607324 0.924865 -2.99996e-18 0 0 1)
(1.149 -0.0575315 8.05019e-21 -0.0575315 0.923177 3.35313e-20 0 0 1)
(1.1506 -0.0542837 1.14313e-18 -0.0542837 0.92158 5.07998e-18 0 0 1)
(1.1521 -0.0509917 3.17608e-18 -0.0509917 0.920076 -5.98101e-18 0 0 1)
(1.15351 -0.047658 -4.76316e-18 -0.047658 0.918667 -1.75946e-18 0 0 1)
(1.15482 -0.0442855 8.99302e-18 -0.0442855 0.917354 9.82626e-19 0 0 1)
(1.15604 -0.0408769 4.71223e-18 -0.0408769 0.916138 1.90232e-18 0 0 1)
(1.15716 -0.0374349 -8.19378e-18 -0.0374349 0.91502 3.84136e-18 0 0 1)
(1.15818 -0.0339624 -7.05642e-19 -0.0339624 0.914 -5.16961e-18 0 0 1)
(1.1591 -0.0304622 -7.97591e-18 -0.0304622 0.91308 6.26386e-18 0 0 1)
(1.15992 -0.0269371 -8.34566e-18 -0.0269371 0.91226 3.53455e-18 0 0 1)
(1.16064 -0.0233901 4.5638e-18 -0.0233901 0.911542 2.22601e-18 0 0 1)
(1.16125 -0.019824 8.23768e-18 -0.019824 0.910925 -5.90602e-18 0 0 1)
(1.16177 -0.0162417 4.32999e-18 -0.0162417 0.91041 -2.6135e-19 0 0 1)
(1.16218 -0.0126462 -2.63057e-19 -0.0126462 0.909997 -5.25887e-18 0 0 1)
(1.16249 -0.00904039 0 -0.00904039 0.909687 0 0 0 1)
(1.1627 -0.00542719 0 -0.00542719 0.909481 0 0 0 1)
(1.1628 -0.00180955 0 -0.00180955 0.909377 0 0 0 1)
(0.911641 -0.001769 -2.62526e-18 -0.001769 1.15938 -1.87446e-20 0 0 1)
(0.911742 -0.00530556 -1.46299e-19 -0.00530556 1.15928 8.37758e-18 0 0 1)
(0.911944 -0.00883778 2.29145e-18 -0.00883778 1.15908 8.46598e-18 0 0 1)
(0.912247 -0.0123628 8.17582e-19 -0.0123628 1.15878 -1.67376e-17 0 0 1)
(0.91265 -0.0158777 5.73736e-18 -0.0158777 1.15837 -8.02694e-18 0 0 1)
(0.913154 -0.0193797 -6.5027e-18 -0.0193797 1.15787 1.62976e-17 0 0 1)
(0.913757 -0.0228659 -1.95523e-20 -0.0228659 1.15727 -1.82007e-21 0 0 1)
(0.91446 -0.0263334 6.10277e-18 -0.0263334 1.15657 -7.77097e-18 0 0 1)
(0.915261 -0.0297795 9.35241e-19 -0.0297795 1.15576 -8.32682e-18 0 0 1)
(0.916161 -0.0332013 2.57439e-18 -0.0332013 1.15486 3.514e-19 0 0 1)
(0.917157 -0.0365959 8.96056e-18 -0.0365959 1.15387 9.82757e-18 0 0 1)
(0.918251 -0.0399608 -5.08787e-18 -0.0399608 1.15277 -8.43121e-19 0 0 1)
(0.91944 -0.043293 -1.45504e-18 -0.043293 1.15159 8.25156e-18 0 0 1)
(0.920723 -0.04659 -6.51071e-20 -0.04659 1.1503 -1.27091e-20 0 0 1)
(0.9221 -0.0498489 -8.14252e-19 -0.0498489 1.14892 -8.73273e-18 0 0 1)
(0.92357 -0.0530672 0 -0.0530672 1.14746 0 0 0 1)
(0.925131 -0.0562422 -2.55279e-18 -0.0562422 1.14589 -6.12871e-19 0 0 1)
(0.926782 -0.0593713 0 -0.0593713 1.14424 0 0 0 1)
(0.928522 -0.062452 9.29e-18 -0.062452 1.1425 -1.48469e-17 0 0 1)
(0.930349 -0.0654817 4.99636e-18 -0.0654817 1.14068 1.42839e-18 0 0 1)
(0.932262 -0.0684581 -9.88192e-18 -0.0684581 1.13876 1.45238e-17 0 0 1)
(0.934259 -0.0713786 2.4561e-18 -0.0713786 1.13677 -8.01113e-18 0 0 1)
(0.936338 -0.0742409 -4.91902e-18 -0.0742409 1.13469 -1.63721e-18 0 0 1)
(0.938499 -0.0770427 -7.99743e-18 -0.0770427 1.13253 1.49583e-17 0 0 1)
(0.940738 -0.0797816 2.40397e-18 -0.0797816 1.13029 8.77134e-19 0 0 1)
(0.943055 -0.0824554 5.42461e-18 -0.0824554 1.12797 -6.89923e-18 0 0 1)
(0.945448 -0.085062 2.39619e-18 -0.085062 1.12558 9.52679e-19 0 0 1)
(0.947913 -0.0875992 4.76468e-18 -0.0875992 1.12311 1.9736e-18 0 0 1)
(0.950451 -0.090065 -2.41089e-18 -0.090065 1.12057 -1.0392e-18 0 0 1)
(0.953057 -0.0924573 4.26165e-20 -0.0924573 1.11797 1.90957e-20 0 0 1)
(0.955731 -0.0947742 -3.50494e-18 -0.0947742 1.11529 7.61057e-18 0 0 1)
(0.95847 -0.0970138 -1.76835e-20 -0.0970138 1.11256 -8.53812e-21 0 0 1)
(0.961272 -0.0991743 5.93193e-20 -0.0991743 1.10975 2.9693e-20 0 0 1)
(0.964134 -0.101254 -6.1757e-18 -0.101254 1.10689 6.2359e-18 0 0 1)
(0.967055 -0.103251 6.24682e-18 -0.103251 1.10397 -6.15636e-18 0 0 1)
(0.970031 -0.105164 4.09693e-18 -0.105164 1.10099 -7.30893e-18 0 0 1)
(0.973061 -0.106991 4.14335e-18 -0.106991 1.09796 -7.28272e-18 0 0 1)
(0.976141 -0.10873 1.68879e-20 -0.10873 1.09488 1.002e-20 0 0 1)
(0.97927 -0.110381 -1.31929e-17 -0.110381 1.09175 1.15691e-17 0 0 1)
(0.982445 -0.111942 4.43485e-18 -0.111942 1.08858 -7.10909e-18 0 0 1)
(0.985664 -0.113412 3.05805e-19 -0.113412 1.08536 -9.80643e-18 0 0 1)
(0.988923 -0.114789 -4.70736e-18 -0.114789 1.0821 6.93153e-18 0 0 1)
(0.99222 -0.116073 0 -0.116073 1.07881 0 0 0 1)
(0.995552 -0.117262 -6.5559e-19 -0.117262 1.07547 9.83438e-18 0 0 1)
(0.998917 -0.118355 -1.58037e-20 -0.118355 1.07211 -1.16553e-20 0 0 1)
(1.00231 -0.119352 1.53986e-17 -0.119352 1.06871 1.17684e-18 0 0 1)
(1.00573 -0.120252 -5.13762e-18 -0.120252 1.06529 6.61893e-18 0 0 1)
(1.00918 -0.121053 4.00037e-18 -0.121053 1.06185 3.2237e-18 0 0 1)
(1.01265 -0.121755 4.02009e-18 -0.121755 1.05838 3.33539e-18 0 0 1)
(1.01613 -0.122359 -3.93654e-18 -0.122359 1.05489 -3.36212e-18 0 0 1)
(1.01963 -0.122862 7.49362e-18 -0.122862 1.05139 -4.56852e-18 0 0 1)
(1.02315 -0.123266 1.91218e-18 -0.123266 1.04788 1.73e-18 0 0 1)
(1.02667 -0.123568 -5.71937e-18 -0.123568 1.04435 6.12317e-18 0 0 1)
(1.03021 -0.12377 3.70982e-18 -0.12377 1.04082 3.5542e-18 0 0 1)
(1.03374 -0.123871 7.74221e-18 -0.123871 1.03728 -4.13327e-18 0 0 1)
(1.03728 -0.123871 0 -0.123871 1.03374 0 0 0 1)
(1.04082 -0.12377 7.13558e-18 -0.12377 1.03021 7.448e-18 0 0 1)
(1.04435 -0.123568 -4.35267e-18 -0.123568 1.02667 7.62102e-18 0 0 1)
(1.04788 -0.123266 3.44682e-18 -0.123266 1.02315 3.8098e-18 0 0 1)
(1.05139 -0.122862 6.31483e-18 -0.122862 1.01963 -5.50711e-18 0 0 1)
(1.05489 -0.122359 -3.00037e-18 -0.122359 1.01613 9.38842e-18 0 0 1)
(1.05838 -0.121755 -3.33539e-18 -0.121755 1.01265 -4.02009e-18 0 0 1)
(1.06185 -0.121053 1.14282e-17 -0.121053 1.00918 8.28235e-19 0 0 1)
(1.06529 -0.120252 1.58917e-18 -0.120252 1.00573 2.03073e-18 0 0 1)
(1.06871 -0.119352 0 -0.119352 1.00231 0 0 0 1)
(1.07211 -0.118355 -3.06107e-18 -0.118355 0.998917 -4.15056e-18 0 0 1)
(1.07547 -0.117262 6.03016e-18 -0.117262 0.995552 8.42567e-18 0 0 1)
(1.07881 -0.116073 -2.42502e-18 -0.116073 0.99222 1.11986e-17 0 0 1)
(1.0821 -0.114789 -3.70509e-20 -0.114789 0.988923 -5.50244e-20 0 0 1)
(1.08536 -0.113412 1.12885e-17 -0.113412 0.985664 1.96456e-18 0 0 1)
(1.08858 -0.111942 -7.08809e-18 -0.111942 0.982445 4.46804e-18 0 0 1)
(1.09175 -0.110381 1.33707e-18 -0.110381 0.97927 2.1819e-18 0 0 1)
(1.09488 -0.10873 9.8544e-18 -0.10873 0.976141 1.88391e-19 0 0 1)
(1.09796 -0.106991 0 -0.106991 0.973061 0 0 0 1)
(1.10099 -0.105164 -2.25586e-18 -0.105164 0.970031 1.31959e-17 0 0 1)
(1.10397 -0.103251 -9.28764e-21 -0.103251 0.967055 -1.73015e-20 0 0 1)
(1.10689 -0.101254 3.05371e-20 -0.101254 0.964134 5.88892e-20 0 0 1)
(1.10975 -0.0991743 -8.78978e-21 -0.0991743 0.961272 -1.75597e-20 0 0 1)
(1.11256 -0.0970138 7.55974e-18 -0.0970138 0.95847 -3.61325e-18 0 0 1)
(1.11529 -0.0947742 -2.17584e-18 -0.0947742 0.955731 -4.67579e-18 0 0 1)
(1.11797 -0.0924573 2.12795e-18 -0.0924573 0.953057 4.749e-18 0 0 1)
(1.12057 -0.090065 3.08063e-18 -0.090065 0.950451 7.14691e-18 0 0 1)
(1.12311 -0.0875992 3.96507e-18 -0.0875992 0.947913 9.57251e-18 0 0 1)
(1.12558 -0.085062 -1.90536e-18 -0.085062 0.945448 -4.79238e-18 0 0 1)
(1.12797 -0.0824554 -9.67096e-18 -0.0824554 0.943055 -1.84768e-18 0 0 1)
(1.13029 -0.0797816 -6.98271e-18 -0.0797816 0.940738 5.30709e-18 0 0 1)
(1.13253 -0.0770427 8.76506e-18 -0.0770427 0.938499 -3.11704e-19 0 0 1)
(1.13469 -0.0742409 1.04182e-17 -0.0742409 0.936338 4.76977e-18 0 0 1)
(1.13677 -0.0713786 -3.13135e-18 -0.0713786 0.934259 -9.87671e-18 0 0 1)