/*--------------------------------*- C++ -*----------------------------------*\
| =========                 |                                                 |
| \\      /  F ield         | OpenFOAM: The Open Source CFD Toolbox           |
|  \\    /   O peration     | Version:  2312                                  |
|   \\  /    A nd           | Website:  www.openfoam.com                      |
|    \\/     M anipulation  |                                                 |
\*---------------------------------------------------------------------------*/
FoamFile
{
    version     2.0;
    format      ascii;
    arch        "LSB;label=32;scalar=64";
    class       volSymmTensorField;
    location    "40";
    object      sigma:Transformed;
}
// * * * * * * * * * * * * * * * * * * * * * * * * * * * * * * * * * * * * * //

dimensions      [1 -1 -2 0 0 0 0];

internalField   nonuniform List<symmTensor> 
12870
(
(-3.92187e+07 -0.041148 -7.22819e-12 6.02657e+07 -1.62327e-09 -4.02815e+06)
(-3.92187e+07 0.0781215 -1.02607e-09 6.02657e+07 8.11633e-10 -4.02815e+06)
(-3.92187e+07 -0.0522511 1.55175e-09 6.02657e+07 1.62327e-09 -4.02815e+06)
(-3.92187e+07 0.090296 3.6141e-12 6.02657e+07 -8.11633e-10 -4.02815e+06)
(-3.92187e+07 -0.190313 -5.18455e-10 6.02657e+07 8.11633e-10 -4.02815e+06)
(-3.92187e+07 0.0914702 1.55898e-09 6.02657e+07 -3.24874e-18 -4.02815e+06)
(-3.92187e+07 -0.0412822 -5.18455e-10 6.02657e+07 -8.11633e-10 -4.02815e+06)
(-3.92187e+07 0.12998 1.04775e-09 6.02657e+07 8.11633e-10 -4.02815e+06)
(-3.92187e+07 0.0300194 -4.18047e-18 6.02657e+07 1.62327e-09 -4.02815e+06)
(-3.92187e+07 0.0239367 1.04052e-09 6.02657e+07 8.11633e-10 -4.02815e+06)
(-3.92187e+07 -0.0544486 1.04052e-09 6.02657e+07 -8.11633e-10 -4.02815e+06)
(-3.92187e+07 0.0850173 5.14841e-10 6.02657e+07 -3.24653e-09 -4.02815e+06)
(-3.92187e+07 -0.226306 -2.06659e-09 6.02657e+07 5.63006e-18 -4.02815e+06)
(-3.92187e+07 0.201681 -5.43753e-10 6.02657e+07 2.0552e-17 -4.02815e+06)
(-3.92187e+07 -0.145332 -1.02607e-09 6.02657e+07 -8.11633e-10 -4.02815e+06)
(-3.92187e+07 0.0552012 -1.04775e-09 6.02657e+07 2.4349e-09 -4.02815e+06)
(-3.92187e+07 -0.105687 -3.6141e-12 6.02657e+07 8.11633e-10 -4.02815e+06)
(-3.92187e+07 -0.0296122 5.22069e-10 6.02657e+07 1.0373e-18 -4.02815e+06)
(-3.92187e+07 0.00696284 5.18455e-10 6.02657e+07 -8.11633e-10 -4.02815e+06)
(-3.92187e+07 0.00441866 3.6141e-12 6.02657e+07 -8.11633e-10 -4.02815e+06)
(-3.92187e+07 0.0940565 0 6.02657e+07 0 -4.02815e+06)
(-3.92187e+07 -0.135475 -5.18455e-10 6.02657e+07 8.11633e-10 -4.02815e+06)
(-3.92187e+07 0.175841 -2.58791e-18 6.02657e+07 1.62327e-09 -4.02815e+06)
(-3.92187e+07 -0.196024 5.11226e-10 6.02657e+07 -8.11633e-10 -4.02815e+06)
(-3.92187e+07 0.13498 -5.14841e-10 6.02657e+07 -1.62327e-09 -4.02815e+06)
(-3.92187e+07 -0.191688 1.05137e-09 6.02657e+07 1.62327e-09 -4.02815e+06)
(-3.92187e+07 0.0401162 1.02245e-09 6.02657e+07 -1.62327e-09 -4.02815e+06)
(-3.92187e+07 -0.0503023 -1.02245e-09 6.02657e+07 -1.62327e-09 -4.02815e+06)
(-3.92187e+07 0.0909324 -5.36525e-10 6.02657e+07 2.24181e-17 -4.02815e+06)
(-3.92187e+07 -0.132441 -1.54452e-09 6.02657e+07 1.62327e-09 -4.02815e+06)
(-3.92187e+07 0.22414 1.02968e-09 6.02657e+07 3.24653e-09 -4.02815e+06)
(-3.92187e+07 -0.135113 -7.2282e-12 6.02657e+07 -1.62327e-09 -4.02815e+06)
(-3.92187e+07 0.0850887 -5.11226e-10 6.02657e+07 -8.11633e-10 -4.02815e+06)
(-3.92187e+07 -0.0597284 -5.25683e-10 6.02657e+07 8.11633e-10 -4.02815e+06)
(-3.92187e+07 0.0416286 5.18455e-10 6.02657e+07 -8.11633e-10 -4.02815e+06)
(-3.92187e+07 -0.0855746 -5.18455e-10 6.02657e+07 -8.11633e-10 -4.02815e+06)
(-3.92187e+07 0.0263342 -7.2282e-12 6.02657e+07 -1.62327e-09 -4.02815e+06)
(-3.92187e+07 -0.061414 -1.03691e-09 6.02657e+07 -1.62327e-09 -4.02815e+06)
(-3.92187e+07 0.00498343 -2.08105e-09 6.02657e+07 1.62327e-09 -4.02815e+06)
(-3.92187e+07 0.0840726 -1.04414e-09 6.02657e+07 3.24653e-09 -4.02815e+06)
(-3.92187e+07 -0.127992 1.02968e-09 6.02657e+07 -6.58456e-18 -4.02815e+06)
(-3.92187e+07 0.0156188 1.44564e-11 6.02657e+07 -3.10332e-18 -4.02815e+06)
(-3.92187e+07 0.107319 1.03691e-09 6.02657e+07 1.62327e-09 -4.02815e+06)
(-3.92187e+07 -0.0268437 -7.2282e-12 6.02657e+07 -1.62327e-09 -4.02815e+06)
(-3.92187e+07 -0.0128686 -5.07612e-10 6.02657e+07 1.77179e-17 -4.02815e+06)
(-3.92187e+07 -0.0141188 1.03691e-09 6.02657e+07 1.62327e-09 -4.02815e+06)
(-3.92187e+07 0.1377 0 6.02657e+07 0 -4.02815e+06)
(-3.92187e+07 -0.122591 5.14841e-10 6.02657e+07 -1.62327e-09 -4.02815e+06)
(-3.92187e+07 0.0676595 -9.20291e-18 6.02657e+07 -3.24653e-09 -4.02815e+06)
(-3.92187e+07 -0.124453 -1.55898e-09 6.02657e+07 -1.62327e-09 -4.02815e+06)
(-3.92187e+07 0.112973 -1.56621e-09 6.02657e+07 3.03283e-17 -4.02815e+06)
(-3.92187e+07 -0.0303525 -1.55536e-09 6.02657e+07 2.4349e-09 -4.02815e+06)
(-3.92187e+07 0.0104397 5.07612e-10 6.02657e+07 1.62327e-09 -4.02815e+06)
(-3.92187e+07 0.103345 -1.03691e-09 6.02657e+07 1.05195e-17 -4.02815e+06)
(-3.92187e+07 -0.166048 -5.22069e-10 6.02657e+07 1.62327e-09 -4.02815e+06)
(-3.92187e+07 0.211411 2.07743e-09 6.02657e+07 -8.11633e-10 -4.02815e+06)
(-3.92187e+07 -0.0601939 1.44564e-11 6.02657e+07 -2.09319e-19 -4.02815e+06)
(-3.92187e+07 -0.0376162 -2.16846e-11 6.02657e+07 -1.62327e-09 -4.02815e+06)
(-3.92187e+07 -0.07967 -1.53729e-09 6.02657e+07 -1.74595e-17 -4.02815e+06)
(-3.92187e+07 0.129616 1.02245e-09 6.02657e+07 1.62327e-09 -4.02815e+06)
(-3.92187e+07 -0.0689531 -5.03998e-10 6.02657e+07 8.11633e-10 -4.02815e+06)
(-3.92187e+07 0.0919796 4.93156e-10 6.02657e+07 -1.62327e-09 -4.02815e+06)
(-3.92187e+07 -0.176375 -1.53368e-09 6.02657e+07 -8.11633e-10 -4.02815e+06)
(-3.92187e+07 0.0102324 1.02607e-09 6.02657e+07 2.4349e-09 -4.02815e+06)
(-3.92187e+07 -0.159977 5.29297e-10 6.02657e+07 3.92709e-18 -4.02815e+06)
(-3.92187e+07 0.210206 -7.2282e-12 6.02657e+07 4.80216e-18 -4.02815e+06)
(-3.92187e+07 -0.238207 5.25683e-10 6.02657e+07 -8.11633e-10 -4.02815e+06)
(-3.92187e+07 0.220007 -5.25683e-10 6.02657e+07 -8.11633e-10 -4.02815e+06)
(-3.92187e+07 -0.148066 -3.61409e-12 6.02657e+07 -2.4349e-09 -4.02815e+06)
(-3.92187e+07 0.1942 -2.06659e-09 6.02657e+07 1.62327e-09 -4.02815e+06)
(-3.92187e+07 -0.0905165 5.00384e-10 6.02657e+07 1.62327e-09 -4.02815e+06)
(-3.92187e+07 -0.00215909 7.22819e-12 6.02657e+07 -1.62327e-09 -4.02815e+06)
(-3.92187e+07 -0.0305221 1.05137e-09 6.02657e+07 1.62327e-09 -4.02815e+06)
(-3.92187e+07 -0.0299018 -1.08423e-11 6.02657e+07 8.11633e-10 -4.02815e+06)
(-3.92187e+07 -0.00554135 -1.37583e-18 6.02657e+07 -1.62327e-09 -4.02815e+06)
(-3.92187e+07 -0.0686846 -5.18455e-10 6.02657e+07 -8.11633e-10 -4.02815e+06)
(-3.92187e+07 0.0204645 -5.22069e-10 6.02657e+07 3.79403e-18 -4.02815e+06)
(-3.92187e+07 0.107141 3.6141e-12 6.02657e+07 8.11633e-10 -4.02815e+06)
(-3.92187e+07 -0.0631804 1.55898e-09 6.02657e+07 -1.49139e-17 -4.02815e+06)
(-3.92187e+07 0.0815553 7.2282e-12 6.02657e+07 -2.21619e-18 -4.02815e+06)
(-3.92187e+07 -0.0789039 5.07612e-10 6.02657e+07 -1.62327e-09 -4.02815e+06)
(-3.92187e+07 0.0626341 -1.01522e-09 6.02657e+07 1.62327e-09 -4.02815e+06)
(-3.92187e+07 -0.0872189 1.53007e-09 6.02657e+07 -1.58066e-17 -4.02815e+06)
(-3.92187e+07 0.0663761 -1.54091e-09 6.02657e+07 -2.4349e-09 -4.02815e+06)
(-3.92187e+07 0.00137392 -7.2282e-12 6.02657e+07 1.62327e-09 -4.02815e+06)
(-3.92187e+07 -0.0586237 3.6141e-12 6.02657e+07 8.11633e-10 -4.02815e+06)
(-3.92187e+07 0.0188001 5.22069e-10 6.02657e+07 1.62327e-09 -4.02815e+06)
(-3.92187e+07 -0.0339091 5.03998e-10 6.02657e+07 -2.4349e-09 -4.02815e+06)
(-3.92187e+07 0.0415089 2.89128e-11 6.02657e+07 -1.89299e-17 -4.02815e+06)
(-3.92187e+07 0.0764124 5.00384e-10 6.02657e+07 1.62327e-09 -4.02815e+06)
(-3.92187e+07 -0.0805248 -5.07612e-10 6.02657e+07 8.47999e-18 -4.02815e+06)
(-3.92187e+07 0.141393 1.02968e-09 6.02657e+07 1.85689e-18 -4.02815e+06)
(-3.92187e+07 -0.0764432 2.13939e-18 6.02657e+07 -3.24653e-09 -4.02815e+06)
(-3.92187e+07 0.0771914 -1.02245e-09 6.02657e+07 1.62327e-09 -4.02815e+06)
(-3.92187e+07 -0.0711158 -1.44564e-11 6.02657e+07 3.24653e-09 -4.02815e+06)
(-3.92187e+07 -0.0172134 2.08105e-09 6.02657e+07 -1.62327e-09 -4.02815e+06)
(-3.92187e+07 -0.00890551 -5.11226e-10 6.02657e+07 -8.11633e-10 -4.02815e+06)
(-3.92187e+07 -0.102731 3.29776e-18 6.02657e+07 1.62327e-09 -4.02815e+06)
(-3.92187e+07 0.160514 5.11226e-10 6.02657e+07 -8.11633e-10 -4.02815e+06)
(-3.92187e+07 -0.0667201 -5.22069e-10 6.02657e+07 -3.24653e-09 -4.02815e+06)
(-3.92187e+07 0.047042 1.80705e-11 6.02657e+07 8.11633e-10 -4.02815e+06)
(-3.92187e+07 -0.0922619 -5.32911e-10 6.02657e+07 2.4349e-09 -4.02815e+06)
(-3.92187e+07 0.0771038 0 6.02657e+07 0 -4.02815e+06)
(-3.92187e+07 -0.0495295 -3.6141e-12 6.02657e+07 -8.11633e-10 -4.02815e+06)
(-3.92187e+07 -0.00401752 -3.6141e-12 6.02657e+07 -2.4349e-09 -4.02815e+06)
(-3.92187e+07 -0.0629214 -1.02607e-09 6.02657e+07 8.11633e-10 -4.02815e+06)
(-3.92187e+07 0.131821 5.07612e-10 6.02657e+07 1.62327e-09 -4.02815e+06)
(-3.92187e+07 -0.0202664 -3.6141e-12 6.02657e+07 -2.4349e-09 -4.02815e+06)
(-3.92187e+07 -0.0281753 -1.02968e-09 6.02657e+07 -4.5929e-18 -4.02815e+06)
(-3.92187e+07 0.022652 -7.22819e-12 6.02657e+07 1.62327e-09 -4.02815e+06)
(-3.8403e+07 -0.0332279 -5.18433e-10 5.90392e+07 3.04311e-19 -3.90486e+06)
(-3.8403e+07 0.0465115 -1.03428e-09 5.90392e+07 -1.56977e-09 -3.90486e+06)
(-3.8403e+07 -0.0472237 -3.82622e-13 5.90392e+07 5.18322e-18 -3.90486e+06)
(-3.8403e+07 0.0646451 -3.49009e-12 5.90392e+07 2.35466e-09 -3.90486e+06)
(-3.8403e+07 -0.0980549 -1.04605e-09 5.90392e+07 -1.56977e-09 -3.90486e+06)
(-3.8403e+07 0.0717376 5.25031e-10 5.90392e+07 -2.84773e-17 -3.90486e+06)
(-3.8403e+07 -0.0380474 -1.61596e-11 5.90392e+07 1.09422e-17 -3.90486e+06)
(-3.8403e+07 0.0686289 1.13785e-11 5.90392e+07 8.59122e-18 -3.90486e+06)
(-3.8403e+07 0.00159528 -5.32393e-10 5.90392e+07 1.56977e-09 -3.90486e+06)
(-3.8403e+07 0.0256866 5.12361e-10 5.90392e+07 -7.84885e-10 -3.90486e+06)
(-3.8403e+07 -0.0425984 -9.56199e-12 5.90392e+07 -3.27383e-18 -3.90486e+06)
(-3.8403e+07 0.0651331 1.5575e-09 5.90392e+07 1.56977e-09 -3.90486e+06)
(-3.8403e+07 -0.137788 -1.02472e-09 5.90392e+07 1.56977e-09 -3.90486e+06)
(-3.8403e+07 0.111686 -5.20632e-10 5.90392e+07 -1.56977e-09 -3.90486e+06)
(-3.8403e+07 -0.10982 -1.53178e-09 5.90392e+07 1.10488e-17 -3.90486e+06)
(-3.8403e+07 0.0425948 -9.08288e-13 5.90392e+07 7.84885e-10 -3.90486e+06)
(-3.8403e+07 -0.0608328 -3.1237e-18 5.90392e+07 -1.56977e-09 -3.90486e+06)
(-3.8403e+07 -0.0085471 5.17142e-10 5.90392e+07 -7.84885e-10 -3.90486e+06)
(-3.8403e+07 0.00026811 -5.23214e-10 5.90392e+07 1.84783e-18 -3.90486e+06)
(-3.8403e+07 -0.015167 -1.03687e-09 5.90392e+07 5.74486e-18 -3.90486e+06)
(-3.8403e+07 0.0607801 3.49009e-12 5.90392e+07 7.84885e-10 -3.90486e+06)
(-3.8403e+07 -0.0874271 -1.03557e-09 5.90392e+07 7.84885e-10 -3.90486e+06)
(-3.8403e+07 0.10996 5.18433e-10 5.90392e+07 -6.36548e-18 -3.90486e+06)
(-3.8403e+07 -0.128769 5.13652e-10 5.90392e+07 2.57846e-18 -3.90486e+06)
(-3.8403e+07 0.0939997 -5.24122e-10 5.90392e+07 -2.35466e-09 -3.90486e+06)
(-3.8403e+07 -0.114493 -5.10545e-10 5.90392e+07 -7.84885e-10 -3.90486e+06)
(-3.8403e+07 0.0412286 5.01891e-10 5.90392e+07 1.56977e-09 -3.90486e+06)
(-3.8403e+07 -0.0518579 -2.06068e-09 5.90392e+07 7.84885e-10 -3.90486e+06)
(-3.8403e+07 0.0651342 -5.17142e-10 5.90392e+07 7.84885e-10 -3.90486e+06)
(-3.8403e+07 -0.0881943 1.08529e-11 5.90392e+07 -7.84885e-10 -3.90486e+06)
(-3.8403e+07 0.127757 1.03777e-09 5.90392e+07 7.84885e-10 -3.90486e+06)
(-3.8403e+07 -0.0878725 1.0264e-09 5.90392e+07 7.84885e-10 -3.90486e+06)
(-3.8403e+07 0.0680873 1.17612e-11 5.90392e+07 2.05326e-18 -3.90486e+06)
(-3.8403e+07 -0.0451337 -5.68927e-12 5.90392e+07 -7.84885e-10 -3.90486e+06)
(-3.8403e+07 0.031888 5.68928e-12 5.90392e+07 -7.84885e-10 -3.90486e+06)
(-3.8403e+07 -0.0511275 -2.19919e-12 5.90392e+07 9.7594e-20 -3.90486e+06)
(-3.8403e+07 0.0216742 3.49009e-12 5.90392e+07 -7.84885e-10 -3.90486e+06)
(-3.8403e+07 -0.0335444 -1.02032e-09 5.90392e+07 1.56977e-09 -3.90486e+06)
(-3.8403e+07 -0.00595053 -1.02472e-09 5.90392e+07 1.56977e-09 -3.90486e+06)
(-3.8403e+07 0.0459197 2.58182e-12 5.90392e+07 -1.56977e-09 -3.90486e+06)
(-3.8403e+07 -0.0522299 2.07115e-09 5.90392e+07 -1.56977e-09 -3.90486e+06)
(-3.8403e+07 0.0185348 0 5.90392e+07 0 -3.90486e+06)
(-3.8403e+07 0.0457341 1.03428e-09 5.90392e+07 1.56977e-09 -3.90486e+06)
(-3.8403e+07 -0.01068 -1.04703e-11 5.90392e+07 7.84885e-10 -3.90486e+06)
(-3.8403e+07 0.0175448 4.78099e-12 5.90392e+07 -1.56977e-09 -3.90486e+06)
(-3.8403e+07 -0.0152748 -5.17525e-10 5.90392e+07 7.84885e-10 -3.90486e+06)
(-3.8403e+07 0.0785824 1.0264e-09 5.90392e+07 7.84885e-10 -3.90486e+06)
(-3.8403e+07 -0.0673608 -4.781e-12 5.90392e+07 -1.56977e-09 -3.90486e+06)
(-3.8403e+07 0.0673888 -1.02989e-09 5.90392e+07 1.25986e-17 -3.90486e+06)
(-3.8403e+07 -0.0695088 1.08529e-11 5.90392e+07 7.84885e-10 -3.90486e+06)
(-3.8403e+07 0.0707452 -1.54096e-09 5.90392e+07 2.50934e-17 -3.90486e+06)
(-3.8403e+07 -0.0142242 -1.54445e-09 5.90392e+07 -7.84885e-10 -3.90486e+06)
(-3.8403e+07 0.00544717 -5.12744e-10 5.90392e+07 7.84885e-10 -3.90486e+06)
(-3.8403e+07 0.0766529 -1.03428e-09 5.90392e+07 1.56977e-09 -3.90486e+06)
(-3.8403e+07 -0.0880137 -9.17937e-12 5.90392e+07 -3.13954e-09 -3.90486e+06)
(-3.8403e+07 0.118554 1.03868e-09 5.90392e+07 -1.56977e-09 -3.90486e+06)
(-3.8403e+07 -0.0453451 -2.07373e-09 5.90392e+07 3.13954e-09 -3.90486e+06)
(-3.8403e+07 0.0147863 5.07963e-10 5.90392e+07 7.84885e-10 -3.90486e+06)
(-3.8403e+07 -0.0451285 -2.05939e-09 5.90392e+07 -1.56977e-09 -3.90486e+06)
(-3.8403e+07 0.068452 1.03428e-09 5.90392e+07 -1.48494e-17 -3.90486e+06)
(-3.8403e+07 -0.061508 -1.03208e-09 5.90392e+07 1.56977e-09 -3.90486e+06)
(-3.8403e+07 0.0610121 1.54354e-09 5.90392e+07 -3.47633e-17 -3.90486e+06)
(-3.8403e+07 -0.101303 -1.54096e-09 5.90392e+07 -1.56977e-09 -3.90486e+06)
(-3.8403e+07 0.0385674 5.12361e-10 5.90392e+07 -7.84885e-10 -3.90486e+06)
(-3.8403e+07 -0.112303 5.20632e-10 5.90392e+07 1.56977e-09 -3.90486e+06)
(-3.8403e+07 0.128963 2.05977e-09 5.90392e+07 -5.36912e-17 -3.90486e+06)
(-3.8403e+07 -0.149599 -5.09254e-10 5.90392e+07 -1.40646e-17 -3.90486e+06)
(-3.8403e+07 0.147544 -9.17937e-12 5.90392e+07 -2.2536e-19 -3.90486e+06)
(-3.8403e+07 -0.107012 -1.02291e-09 5.90392e+07 2.0256e-17 -3.90486e+06)
(-3.8403e+07 0.117243 -1.54665e-09 5.90392e+07 7.84885e-10 -3.90486e+06)
(-3.8403e+07 -0.0565738 -4.781e-12 5.90392e+07 -1.56977e-09 -3.90486e+06)
(-3.8403e+07 0.0202262 -5.21923e-10 5.90392e+07 -2.35466e-09 -3.90486e+06)
(-3.8403e+07 -0.0155116 -1.02549e-09 5.90392e+07 1.56977e-09 -3.90486e+06)
(-3.8403e+07 -0.0131601 1.01942e-09 5.90392e+07 2.35466e-09 -3.90486e+06)
(-3.8403e+07 0.00332109 5.21923e-10 5.90392e+07 -7.84885e-10 -3.90486e+06)
(-3.8403e+07 -0.0219644 4.781e-12 5.90392e+07 1.94478e-18 -3.90486e+06)
(-3.8403e+07 0.00568201 1.29091e-12 5.90392e+07 -7.84885e-10 -3.90486e+06)
(-3.8403e+07 0.0530181 -3.49009e-12 5.90392e+07 -2.35466e-09 -3.90486e+06)
(-3.8403e+07 -0.0430105 5.1805e-10 5.90392e+07 2.93546e-18 -3.90486e+06)
(-3.8403e+07 0.0592322 1.02989e-09 5.90392e+07 1.56977e-09 -3.90486e+06)
(-3.8403e+07 -0.0507928 5.13652e-10 5.90392e+07 -2.90385e-18 -3.90486e+06)
(-3.8403e+07 0.0472 -1.54574e-09 5.90392e+07 1.30472e-17 -3.90486e+06)
(-3.8403e+07 -0.0506534 5.0758e-10 5.90392e+07 7.84885e-10 -3.90486e+06)
(-3.8403e+07 0.0390588 7.36281e-12 5.90392e+07 -2.20115e-18 -3.90486e+06)
(-3.8403e+07 -0.00363993 3.49009e-12 5.90392e+07 -7.84885e-10 -3.90486e+06)
(-3.8403e+07 -0.0237344 -5.18433e-10 5.90392e+07 9.86922e-19 -3.90486e+06)
(-3.8403e+07 0.0215395 -1.29091e-12 5.90392e+07 7.84885e-10 -3.90486e+06)
(-3.8403e+07 -0.0153864 4.99692e-10 5.90392e+07 -1.56977e-09 -3.90486e+06)
(-3.8403e+07 0.0163158 2.09405e-11 5.90392e+07 -1.04144e-17 -3.90486e+06)
(-3.8403e+07 0.0462956 5.03182e-10 5.90392e+07 2.35466e-09 -3.90486e+06)
(-3.8403e+07 -0.0456941 -5.17142e-10 5.90392e+07 -7.84885e-10 -3.90486e+06)
(-3.8403e+07 0.0838673 2.06766e-09 5.90392e+07 -7.84885e-10 -3.90486e+06)
(-3.8403e+07 -0.0541443 -5.18433e-10 5.90392e+07 1.44575e-18 -3.90486e+06)
(-3.8403e+07 0.0505987 -1.02032e-09 5.90392e+07 1.56977e-09 -3.90486e+06)
(-3.8403e+07 -0.0394386 4.97492e-10 5.90392e+07 -1.56977e-09 -3.90486e+06)
(-3.8403e+07 -0.0043314 1.04217e-09 5.90392e+07 -7.84885e-10 -3.90486e+06)
(-3.8403e+07 0.00838844 -5.68927e-12 5.90392e+07 2.35466e-09 -3.90486e+06)
(-3.8403e+07 -0.0609985 0 5.90392e+07 0 -3.90486e+06)
(-3.8403e+07 0.081817 2.06895e-09 5.90392e+07 -1.34207e-17 -3.90486e+06)
(-3.8403e+07 -0.0541688 -5.68928e-12 5.90392e+07 -2.35466e-09 -3.90486e+06)
(-3.8403e+07 0.0439615 -1.01244e-09 5.90392e+07 7.84885e-10 -3.90486e+06)
(-3.8403e+07 -0.0564388 5.05763e-10 5.90392e+07 2.35466e-09 -3.90486e+06)
(-3.8403e+07 0.0448876 -5.14943e-10 5.90392e+07 -7.84885e-10 -3.90486e+06)
(-3.8403e+07 -0.0355488 -5.21923e-10 5.90392e+07 -7.84885e-10 -3.90486e+06)
(-3.8403e+07 0.017834 -5.14943e-10 5.90392e+07 -7.84885e-10 -3.90486e+06)
(-3.8403e+07 -0.0396825 -1.0273e-09 5.90392e+07 -3.50708e-18 -3.90486e+06)
(-3.8403e+07 0.0633572 5.13652e-10 5.90392e+07 -6.42303e-18 -3.90486e+06)
(-3.8403e+07 -0.0179153 0 5.90392e+07 0 -3.90486e+06)
(-3.8403e+07 -0.0045169 -1.0273e-09 5.90392e+07 -2.58272e-18 -3.90486e+06)
(-3.8403e+07 0.0145702 0 5.90392e+07 0 -3.90486e+06)
(-3.72307e+07 -0.0185541 1.29597e-12 5.77746e+07 -7.58342e-10 -3.78548e+06)
(-3.72307e+07 0.0107142 6.66446e-12 5.77746e+07 -3.72218e-18 -3.78548e+06)
(-3.72307e+07 -0.0291638 -2.028e-09 5.77746e+07 -4.88511e-18 -3.78548e+06)
(-3.72307e+07 0.0279903 -1.00761e-09 5.77746e+07 7.58342e-10 -3.78548e+06)
(-3.72307e+07 -0.00142877 1.51772e-09 5.77746e+07 -1.8014e-18 -3.78548e+06)
(-3.72307e+07 0.0353651 -1.00169e-09 5.77746e+07 -1.51668e-09 -3.78548e+06)
(-3.72307e+07 -0.024681 -5.13433e-10 5.77746e+07 2.15532e-18 -3.78548e+06)
(-3.72307e+07 0.00522465 -1.00169e-09 5.77746e+07 1.51668e-09 -3.78548e+06)
(-3.72307e+07 -0.0209695 5.03437e-10 5.77746e+07 7.58342e-10 -3.78548e+06)
(-3.72307e+07 0.0213738 1.0289e-09 5.77746e+07 -4.01225e-20 -3.78548e+06)
(-3.72307e+07 -0.0207678 -7.40475e-12 5.77746e+07 -2.27503e-09 -3.78548e+06)
(-3.72307e+07 0.0312547 1.0737e-11 5.77746e+07 -1.51668e-09 -3.78548e+06)
(-3.72307e+07 -0.0300536 1.00835e-09 5.77746e+07 3.03337e-09 -3.78548e+06)
(-3.72307e+07 0.0133861 -9.99669e-12 5.77746e+07 7.58342e-10 -3.78548e+06)
(-3.72307e+07 -0.0502713 4.6282e-12 5.77746e+07 -1.51668e-09 -3.78548e+06)
(-3.72307e+07 0.0182405 1.01502e-09 5.77746e+07 -5.70582e-18 -3.78548e+06)
(-3.72307e+07 -0.0155548 5.02141e-10 5.77746e+07 -2.99558e-18 -3.78548e+06)
(-3.72307e+07 0.00631787 9.99669e-12 5.77746e+07 7.58342e-10 -3.78548e+06)
(-3.72307e+07 -0.00794533 2.59194e-12 5.77746e+07 1.51668e-09 -3.78548e+06)
(-3.72307e+07 -0.030189 2.03781e-09 5.77746e+07 -1.51668e-09 -3.78548e+06)
(-3.72307e+07 0.0114516 1.33289e-11 5.77746e+07 7.47051e-18 -3.78548e+06)
(-3.72307e+07 -0.0336014 5.00105e-10 5.77746e+07 -1.07163e-17 -3.78548e+06)
(-3.72307e+07 0.025906 1.53178e-09 5.77746e+07 -7.58342e-10 -3.78548e+06)
(-3.72307e+07 -0.0456471 5.05473e-10 5.77746e+07 7.58342e-10 -3.78548e+06)
(-3.72307e+07 0.0332537 -5.08805e-10 5.77746e+07 2.99642e-18 -3.78548e+06)
(-3.72307e+07 -0.0277304 -1.00373e-09 5.77746e+07 -1.2019e-17 -3.78548e+06)
(-3.72307e+07 0.0291012 7.96043e-12 5.77746e+07 7.58342e-10 -3.78548e+06)
(-3.72307e+07 -0.0405551 2.59192e-12 5.77746e+07 3.83677e-18 -3.78548e+06)
(-3.72307e+07 0.0254282 5.02141e-10 5.77746e+07 -3.03337e-09 -3.78548e+06)
(-3.72307e+07 -0.0332821 5.11582e-10 5.77746e+07 -7.58342e-10 -3.78548e+06)
(-3.72307e+07 0.0178059 -6.66446e-12 5.77746e+07 1.51668e-09 -3.78548e+06)
(-3.72307e+07 -0.031354 -9.2564e-12 5.77746e+07 -5.53854e-18 -3.78548e+06)
(-3.72307e+07 0.0308944 5.07509e-10 5.77746e+07 7.58342e-10 -3.78548e+06)
(-3.72307e+07 -0.0254024 -7.96042e-12 5.77746e+07 7.58342e-10 -3.78548e+06)
(-3.72307e+07 0.0149195 -1.01631e-09 5.77746e+07 -7.58342e-10 -3.78548e+06)
(-3.72307e+07 -0.0118016 5.07509e-10 5.77746e+07 -7.58342e-10 -3.78548e+06)
(-3.72307e+07 0.0107502 0 5.77746e+07 0 -3.78548e+06)
(-3.72307e+07 -0.00274613 1.01761e-09 5.77746e+07 -5.6987e-18 -3.78548e+06)
(-3.72307e+07 -0.0119938 1.00835e-09 5.77746e+07 -1.08162e-17 -3.78548e+06)
(-3.72307e+07 -0.00161327 -1.59208e-11 5.77746e+07 -1.51668e-09 -3.78548e+06)
(-3.72307e+07 0.0137629 1.02168e-09 5.77746e+07 -1.57361e-17 -3.78548e+06)
(-3.72307e+07 0.0097029 -6.66446e-12 5.77746e+07 1.51668e-09 -3.78548e+06)
(-3.72307e+07 -0.0140762 6.66446e-12 5.77746e+07 1.51668e-09 -3.78548e+06)
(-3.72307e+07 -3.68195e-06 1.00428e-09 5.77746e+07 -3.10993e-17 -3.78548e+06)
(-3.72307e+07 0.0304823 -4.96772e-10 5.77746e+07 7.58342e-10 -3.78548e+06)
(-3.72307e+07 -0.0144292 -6.10879e-12 5.77746e+07 1.01294e-17 -3.78548e+06)
(-3.72307e+07 0.00959132 1.02502e-09 5.77746e+07 -7.58342e-10 -3.78548e+06)
(-3.72307e+07 -0.0133067 -5.10842e-10 5.77746e+07 1.51668e-09 -3.78548e+06)
(-3.72307e+07 0.0421104 -4.07253e-12 5.77746e+07 -3.03337e-09 -3.78548e+06)
(-3.72307e+07 -0.00991646 -4.99364e-10 5.77746e+07 -7.58342e-10 -3.78548e+06)
(-3.72307e+07 0.0152239 4.98809e-10 5.77746e+07 2.27503e-09 -3.78548e+06)
(-3.72307e+07 -0.00172437 5.12137e-10 5.77746e+07 7.58342e-10 -3.78548e+06)
(-3.72307e+07 -0.00393021 5.92416e-12 5.77746e+07 7.58342e-10 -3.78548e+06)
(-3.72307e+07 0.0283524 -3.33223e-12 5.77746e+07 -7.58342e-10 -3.78548e+06)
(-3.72307e+07 -0.00991976 1.01298e-09 5.77746e+07 -1.51668e-09 -3.78548e+06)
(-3.72307e+07 0.0122679 -9.91693e-10 5.77746e+07 2.27503e-09 -3.78548e+06)
(-3.72307e+07 -0.0259714 -4.81284e-12 5.77746e+07 7.58342e-10 -3.78548e+06)
(-3.72307e+07 0.0456525 1.02631e-09 5.77746e+07 -1.51668e-09 -3.78548e+06)
(-3.72307e+07 -0.0133688 -5.14174e-10 5.77746e+07 -7.58342e-10 -3.78548e+06)
(-3.72307e+07 0.000980982 1.33289e-11 5.77746e+07 -2.59724e-17 -3.78548e+06)
(-3.72307e+07 -0.0441749 5.00105e-10 5.77746e+07 -2.95789e-17 -3.78548e+06)
(-3.72307e+07 0.0162843 7.403e-13 5.77746e+07 -7.58342e-10 -3.78548e+06)
(-3.72307e+07 -0.0229022 5.05473e-10 5.77746e+07 7.58342e-10 -3.78548e+06)
(-3.72307e+07 0.0437476 1.29597e-12 5.77746e+07 -7.58342e-10 -3.78548e+06)
(-3.72307e+07 -0.0486255 -3.33223e-12 5.77746e+07 -2.27503e-09 -3.78548e+06)
(-3.72307e+07 0.027532 1.01909e-09 5.77746e+07 1.51668e-09 -3.78548e+06)
(-3.72307e+07 -0.0457151 -7.40476e-12 5.77746e+07 2.27503e-09 -3.78548e+06)
(-3.72307e+07 0.0459129 1.01965e-09 5.77746e+07 -7.5316e-18 -3.78548e+06)
(-3.72307e+07 -0.0503002 -1.01502e-09 5.77746e+07 8.8728e-18 -3.78548e+06)
(-3.72307e+07 0.0211622 1.01965e-09 5.77746e+07 -2.15194e-17 -3.78548e+06)
(-3.72307e+07 -0.0239319 5.06769e-10 5.77746e+07 -1.19145e-17 -3.78548e+06)
(-3.72307e+07 0.0232295 -1.00632e-09 5.77746e+07 8.58667e-18 -3.78548e+06)
(-3.72307e+07 -0.00521925 -1.00909e-09 5.77746e+07 -7.58342e-10 -3.78548e+06)
(-3.72307e+07 -0.000217506 1.01502e-09 5.77746e+07 -1.51668e-09 -3.78548e+06)
(-3.72307e+07 0.00461721 5.04177e-10 5.77746e+07 -1.07186e-18 -3.78548e+06)
(-3.72307e+07 0.0121793 -5.13433e-10 5.77746e+07 5.14911e-18 -3.78548e+06)
(-3.72307e+07 -0.0119958 5.04177e-10 5.77746e+07 -4.55822e-18 -3.78548e+06)
(-3.72307e+07 -0.0018345 -1.01761e-09 5.77746e+07 8.69928e-18 -3.78548e+06)
(-3.72307e+07 -0.0157367 -1.01502e-09 5.77746e+07 -1.51668e-09 -3.78548e+06)
(-3.72307e+07 0.0236122 4.07253e-12 5.77746e+07 2.18892e-17 -3.78548e+06)
(-3.72307e+07 -0.0149671 -3.33223e-12 5.77746e+07 2.27503e-09 -3.78548e+06)
(-3.72307e+07 0.0230562 4.62819e-12 5.77746e+07 1.51668e-09 -3.78548e+06)
(-3.72307e+07 -0.00929514 -7.40475e-12 5.77746e+07 -2.27503e-09 -3.78548e+06)
(-3.72307e+07 0.00400689 5.14914e-10 5.77746e+07 -1.51668e-09 -3.78548e+06)
(-3.72307e+07 -0.0066352 -3.33223e-12 5.77746e+07 2.27503e-09 -3.78548e+06)
(-3.72307e+07 0.0101924 -1.01631e-09 5.77746e+07 7.58342e-10 -3.78548e+06)
(-3.72307e+07 0.0136773 -1.01298e-09 5.77746e+07 2.51818e-18 -3.78548e+06)
(-3.72307e+07 0.00537374 4.98809e-10 5.77746e+07 -2.27503e-09 -3.78548e+06)
(-3.72307e+07 -0.00716545 -9.97617e-10 5.77746e+07 1.14411e-17 -3.78548e+06)
(-3.72307e+07 0.0109551 4.98809e-10 5.77746e+07 2.27503e-09 -3.78548e+06)
(-3.72307e+07 -0.00777296 4.98809e-10 5.77746e+07 -2.27503e-09 -3.78548e+06)
(-3.72307e+07 0.0185746 1.0737e-11 5.77746e+07 -1.39117e-17 -3.78548e+06)
(-3.72307e+07 -0.0208369 -1.02631e-09 5.77746e+07 1.51668e-09 -3.78548e+06)
(-3.72307e+07 0.0159243 6.66446e-12 5.77746e+07 -7.97157e-18 -3.78548e+06)
(-3.72307e+07 -0.00444359 1.00632e-09 5.77746e+07 8.26536e-19 -3.78548e+06)
(-3.72307e+07 0.00470575 -1.00502e-09 5.77746e+07 -7.58342e-10 -3.78548e+06)
(-3.72307e+07 0.0162437 -5.10101e-10 5.77746e+07 7.58342e-10 -3.78548e+06)
(-3.72307e+07 -0.0117707 4.95476e-10 5.77746e+07 -1.51668e-09 -3.78548e+06)
(-3.72307e+07 0.00068091 5.11582e-10 5.77746e+07 -7.58342e-10 -3.78548e+06)
(-3.72307e+07 -0.0301032 4.97513e-10 5.77746e+07 1.51668e-09 -3.78548e+06)
(-3.72307e+07 0.0274721 -1.00835e-09 5.77746e+07 4.06951e-18 -3.78548e+06)
(-3.72307e+07 -0.0152953 1.01502e-09 5.77746e+07 1.51668e-09 -3.78548e+06)
(-3.72307e+07 0.00998836 5.06769e-10 5.77746e+07 1.51668e-09 -3.78548e+06)
(-3.72307e+07 -0.0155789 5.10101e-10 5.77746e+07 -7.58342e-10 -3.78548e+06)
(-3.72307e+07 0.0282425 -1.01298e-09 5.77746e+07 -1.51668e-09 -3.78548e+06)
(-3.72307e+07 -0.0130076 3.33223e-12 5.77746e+07 -7.58342e-10 -3.78548e+06)
(-3.72307e+07 -0.00424604 -1.01761e-09 5.77746e+07 1.87524e-18 -3.78548e+06)
(-3.72307e+07 -0.0106972 0 5.77746e+07 0 -3.78548e+06)
(-3.72307e+07 0.0136845 0 5.77746e+07 0 -3.78548e+06)
(-3.72307e+07 0.00301483 0 5.77746e+07 0 -3.78548e+06)
(-3.63024e+07 -0.012699 -5.07067e-10 5.6598e+07 -1.89142e-18 -3.67392e+06)
(-3.63024e+07 0.00351542 6.4062e-12 5.6598e+07 1.46719e-09 -3.67392e+06)
(-3.63024e+07 -0.0190678 5.00661e-10 5.6598e+07 1.46719e-09 -3.67392e+06)
(-3.63024e+07 0.0196912 -3.79274e-12 5.6598e+07 -2.93437e-09 -3.67392e+06)
(-3.63024e+07 0.0101893 1.00629e-09 5.6598e+07 -1.46719e-09 -3.67392e+06)
(-3.63024e+07 0.0231022 -1.00511e-09 5.6598e+07 2.93437e-09 -3.67392e+06)
(-3.63024e+07 -0.0195191 -3.79274e-12 5.6598e+07 -1.27683e-18 -3.67392e+06)
(-3.63024e+07 -0.00790795 1.01152e-09 5.6598e+07 -1.46719e-09 -3.67392e+06)
(-3.63024e+07 -0.0242524 -1.54259e-11 5.6598e+07 -1.46719e-09 -3.67392e+06)
(-3.63024e+07 0.013955 5.0184e-10 5.6598e+07 7.36133e-18 -3.67392e+06)
(-3.63024e+07 -0.0133394 1.9948e-09 5.6598e+07 1.46719e-09 -3.67392e+06)
(-3.63024e+07 0.0212344 -9.96095e-10 5.6598e+07 -1.1397e-18 -3.67392e+06)
(-3.63024e+07 -0.00841093 6.4062e-12 5.6598e+07 1.46719e-09 -3.67392e+06)
(-3.63024e+07 0.000282531 -1.28124e-11 5.6598e+07 1.25014e-17 -3.67392e+06)
(-3.63024e+07 -0.0290408 -5.00661e-10 5.6598e+07 -1.46719e-09 -3.67392e+06)
(-3.63024e+07 0.0115012 0 5.6598e+07 0 -3.67392e+06)
(-3.63024e+07 -0.00446002 -5.07067e-10 5.6598e+07 6.08149e-19 -3.67392e+06)
(-3.63024e+07 0.00623679 0 5.6598e+07 0 -3.67392e+06)
(-3.63024e+07 -0.00894011 9.83283e-10 5.6598e+07 -2.93437e-09 -3.67392e+06)
(-3.63024e+07 -0.0274236 1.00368e-09 5.6598e+07 -1.55452e-17 -3.67392e+06)
(-3.63024e+07 -0.00112523 -1.01793e-09 5.6598e+07 2.93437e-09 -3.67392e+06)
(-3.63024e+07 -0.0220672 -1.54259e-11 5.6598e+07 -1.46719e-09 -3.67392e+06)
(-3.63024e+07 0.00757584 -1.00132e-09 5.6598e+07 1.5617e-17 -3.67392e+06)
(-3.63024e+07 -0.0233943 -5.07067e-10 5.6598e+07 2.93437e-09 -3.67392e+06)
(-3.63024e+07 0.0181755 4.94255e-10 5.6598e+07 3.34719e-18 -3.67392e+06)
(-3.63024e+07 -0.00887347 5.04454e-10 5.6598e+07 -1.46719e-09 -3.67392e+06)
(-3.63024e+07 0.0229834 4.98048e-10 5.6598e+07 -2.20799e-18 -3.67392e+06)
(-3.63024e+07 -0.0271603 9.96095e-10 5.6598e+07 -2.47762e-18 -3.67392e+06)
(-3.63024e+07 0.0132887 -5.07067e-10 5.6598e+07 6.90222e-18 -3.67392e+06)
(-3.63024e+07 -0.0208711 9.01967e-12 5.6598e+07 1.49137e-18 -3.67392e+06)
(-3.63024e+07 -0.0042509 6.4062e-12 5.6598e+07 1.46719e-09 -3.67392e+06)
(-3.63024e+07 -0.0186696 -3.79274e-12 5.6598e+07 3.46494e-18 -3.67392e+06)
(-3.63024e+07 0.0143508 1.28124e-11 5.6598e+07 -1.42018e-17 -3.67392e+06)
(-3.63024e+07 -0.0149975 -5.04454e-10 5.6598e+07 1.46719e-09 -3.67392e+06)
(-3.63024e+07 0.00816375 5.00661e-10 5.6598e+07 -1.46719e-09 -3.67392e+06)
(-3.63024e+07 -0.00196345 6.4062e-12 5.6598e+07 -1.46719e-09 -3.67392e+06)
(-3.63024e+07 0.00846846 -6.4062e-12 5.6598e+07 -1.46719e-09 -3.67392e+06)
(-3.63024e+07 0.00184034 3.79273e-12 5.6598e+07 -5.51311e-18 -3.67392e+06)
(-3.63024e+07 -0.00769815 -1.00511e-09 5.6598e+07 2.93437e-09 -3.67392e+06)
(-3.63024e+07 -0.00632835 -1.01989e-11 5.6598e+07 -1.46719e-09 -3.67392e+06)
(-3.63024e+07 0.0173124 -9.85896e-10 5.6598e+07 -1.46719e-09 -3.67392e+06)
(-3.63024e+07 0.00525202 -6.4062e-12 5.6598e+07 1.46719e-09 -3.67392e+06)
(-3.63024e+07 -0.0181503 0 5.6598e+07 0 -3.67392e+06)
(-3.63024e+07 0.0018286 1.0025e-09 5.6598e+07 1.46719e-09 -3.67392e+06)
(-3.63024e+07 0.0234332 -3.79273e-12 5.6598e+07 3.36275e-18 -3.67392e+06)
(-3.63024e+07 -0.00953184 2.50566e-09 5.6598e+07 -1.46719e-09 -3.67392e+06)
(-3.63024e+07 -0.000522992 6.4062e-12 5.6598e+07 1.46719e-09 -3.67392e+06)
(-3.63024e+07 0.00121783 9.92302e-10 5.6598e+07 1.0267e-18 -3.67392e+06)
(-3.63024e+07 0.0297732 1.00891e-09 5.6598e+07 -6.82559e-18 -3.67392e+06)
(-3.63024e+07 0.00243338 -9.99888e-10 5.6598e+07 7.43526e-18 -3.67392e+06)
(-3.63024e+07 0.0057109 5.04454e-10 5.6598e+07 -1.46719e-09 -3.67392e+06)
(-3.63024e+07 -0.000764646 4.98048e-10 5.6598e+07 -8.38542e-18 -3.67392e+06)
(-3.63024e+07 -0.00429193 -2.61346e-12 5.6598e+07 1.46719e-09 -3.67392e+06)
(-3.63024e+07 0.0125517 9.92302e-10 5.6598e+07 -7.34053e-19 -3.67392e+06)
(-3.63024e+07 0.000699826 5.04454e-10 5.6598e+07 -1.46719e-09 -3.67392e+06)
(-3.63024e+07 -0.00360416 0 5.6598e+07 0 -3.67392e+06)
(-3.63024e+07 -0.0162791 1.99219e-09 5.6598e+07 -1.78114e-17 -3.67392e+06)
(-3.63024e+07 0.0385867 5.04454e-10 5.6598e+07 1.46719e-09 -3.67392e+06)
(-3.63024e+07 -0.00461846 9.92302e-10 5.6598e+07 4.15127e-18 -3.67392e+06)
(-3.63024e+07 -0.00704021 6.4062e-12 5.6598e+07 -1.46719e-09 -3.67392e+06)
(-3.63024e+07 -0.0287654 1.0025e-09 5.6598e+07 1.46719e-09 -3.67392e+06)
(-3.63024e+07 0.0070284 -1.00891e-09 5.6598e+07 -5.68328e-21 -3.67392e+06)