/*--------------------------------*- C++ -*----------------------------------*\
| =========                 |                                                 |
| \\      /  F ield         | OpenFOAM: The Open Source CFD Toolbox           |
|  \\    /   O peration     | Version:  2312                                  |
|   \\  /    A nd           | Website:  www.openfoam.com                      |
|    \\/     M anipulation  |                                                 |
\*---------------------------------------------------------------------------*/
FoamFile
{
    version     2.0;
    format      ascii;
    arch        "LSB;label=32;scalar=64";
    class       volVectorField;
    location    "40";
    object      U;
}
// * * * * * * * * * * * * * * * * * * * * * * * * * * * * * * * * * * * * * //

dimensions      [0 1 -1 0 0 0 0];

internalField   nonuniform List<vector> 
12870
(
(0.0379737 0.000271136 0)
(0.037966 0.000813353 0)
(0.0379505 0.0013554 0)
(0.0379272 0.00189718 0)
(0.0378963 0.00243857 0)
(0.0378576 0.00297946 0)
(0.0378112 0.00351974 0)
(0.0377571 0.00405931 0)
(0.0376953 0.00459804 0)
(0.0376258 0.00513584 0)
(0.0375486 0.0056726 0)
(0.0374638 0.00620819 0)
(0.0373713 0.00674252 0)
(0.0372712 0.00727548 0)
(0.0371635 0.00780695 0)
(0.0370482 0.00833683 0)
(0.0369254 0.00886501 0)
(0.0367951 0.00939138 0)
(0.0366572 0.00991584 0)
(0.0365119 0.0104383 0)
(0.0363591 0.0109586 0)
(0.0361989 0.0114767 0)
(0.0360313 0.0119924 0)
(0.0358564 0.0125057 0)
(0.0356742 0.0130164 0)
(0.0354847 0.0135245 0)
(0.035288 0.0140298 0)
(0.035084 0.0145323 0)
(0.0348729 0.0150318 0)
(0.0346547 0.0155282 0)
(0.0344295 0.0160215 0)
(0.0341972 0.0165115 0)
(0.0339579 0.0169981 0)
(0.0337117 0.0174813 0)
(0.0334587 0.0179609 0)
(0.0331988 0.0184368 0)
(0.0329321 0.018909 0)
(0.0326588 0.0193773 0)
(0.0323787 0.0198417 0)
(0.0320921 0.020302 0)
(0.0317989 0.0207582 0)
(0.0314993 0.0212102 0)
(0.0311932 0.0216578 0)
(0.0308807 0.022101 0)
(0.030562 0.0225397 0)
(0.030237 0.0229738 0)
(0.0299059 0.0234033 0)
(0.0295687 0.0238279 0)
(0.0292254 0.0242477 0)
(0.0288762 0.0246626 0)
(0.0285211 0.0250724 0)
(0.0281601 0.0254771 0)
(0.0277935 0.0258766 0)
(0.0274211 0.0262709 0)
(0.0270432 0.0266597 0)
(0.0266597 0.0270432 0)
(0.0262709 0.0274211 0)
(0.0258766 0.0277935 0)
(0.0254771 0.0281601 0)
(0.0250724 0.0285211 0)
(0.0246626 0.0288762 0)
(0.0242477 0.0292254 0)
(0.0238279 0.0295687 0)
(0.0234033 0.0299059 0)
(0.0229738 0.030237 0)
(0.0225397 0.030562 0)
(0.022101 0.0308807 0)
(0.0216578 0.0311932 0)
(0.0212102 0.0314993 0)
(0.0207582 0.0317989 0)
(0.020302 0.0320921 0)
(0.0198417 0.0323787 0)
(0.0193773 0.0326588 0)
(0.018909 0.0329321 0)
(0.0184368 0.0331988 0)
(0.0179609 0.0334587 0)
(0.0174813 0.0337117 0)
(0.0169981 0.0339579 0)
(0.0165115 0.0341972 0)
(0.0160215 0.0344295 0)
(0.0155282 0.0346547 0)
(0.0150318 0.0348729 0)
(0.0145323 0.035084 0)
(0.0140298 0.035288 0)
(0.0135245 0.0354847 0)
(0.0130164 0.0356742 0)
(0.0125057 0.0358564 0)
(0.0119924 0.0360313 0)
(0.0114767 0.0361989 0)
(0.0109586 0.0363591 0)
(0.0104383 0.0365119 0)
(0.00991584 0.0366572 0)
(0.00939138 0.0367951 0)
(0.00886501 0.0369254 0)
(0.00833683 0.0370482 0)
(0.00780695 0.0371635 0)
(0.00727548 0.0372712 0)
(0.00674252 0.0373713 0)
(0.00620819 0.0374638 0)
(0.0056726 0.0375486 0)
(0.00513584 0.0376258 0)
(0.00459804 0.0376953 0)
(0.00405931 0.0377571 0)
(0.00351974 0.0378112 0)
(0.00297946 0.0378576 0)
(0.00243857 0.0378963 0)
(0.00189718 0.0379272 0)
(0.0013554 0.0379505 0)
(0.000813353 0.037966 0)
(0.000271136 0.0379737 0)
(0.0377333 0.00026942 0)
(0.0377256 0.000808205 0)
(0.0377102 0.00134682 0)
(0.0376872 0.00188517 0)
(0.0376564 0.00242313 0)
(0.037618 0.0029606 0)
(0.0375719 0.00349746 0)
(0.0375181 0.00403361 0)
(0.0374567 0.00456894 0)
(0.0373876 0.00510333 0)
(0.0373109 0.00563669 0)
(0.0372266 0.0061689 0)
(0.0371347 0.00669984 0)
(0.0370353 0.00722942 0)
(0.0369283 0.00775753 0)
(0.0368137 0.00828406 0)
(0.0366917 0.00880889 0)
(0.0365622 0.00933193 0)
(0.0364252 0.00985307 0)
(0.0362808 0.0103722 0)
(0.036129 0.0108892 0)
(0.0359698 0.011404 0)
(0.0358033 0.0119165 0)
(0.0356295 0.0124265 0)
(0.0354484 0.012934 0)
(0.0352601 0.0134389 0)
(0.0350646 0.013941 0)
(0.0348619 0.0144403 0)
(0.0346522 0.0149366 0)
(0.0344354 0.0154299 0)
(0.0342115 0.0159201 0)
(0.0339807 0.016407 0)
(0.033743 0.0168905 0)
(0.0334983 0.0173706 0)
(0.0332469 0.0178472 0)
(0.0329886 0.0183201 0)
(0.0327237 0.0187893 0)
(0.032452 0.0192547 0)
(0.0321738 0.0197161 0)
(0.031889 0.0201735 0)
(0.0315976 0.0206268 0)
(0.0312999 0.0210759 0)
(0.0309957 0.0215207 0)
(0.0306853 0.0219611 0)
(0.0303685 0.0223971 0)
(0.0300456 0.0228284 0)
(0.0297166 0.0232551 0)
(0.0293815 0.0236771 0)
(0.0290404 0.0240942 0)
(0.0286934 0.0245065 0)
(0.0283405 0.0249137 0)
(0.0279819 0.0253158 0)
(0.0276175 0.0257128 0)
(0.0272475 0.0261046 0)
(0.026872 0.026491 0)
(0.026491 0.026872 0)
(0.0261046 0.0272475 0)
(0.0257128 0.0276175 0)
(0.0253158 0.0279819 0)
(0.0249137 0.0283405 0)
(0.0245065 0.0286934 0)
(0.0240942 0.0290404 0)
(0.0236771 0.0293815 0)
(0.0232551 0.0297166 0)
(0.0228284 0.0300456 0)
(0.0223971 0.0303685 0)
(0.0219611 0.0306853 0)
(0.0215207 0.0309957 0)
(0.0210759 0.0312999 0)
(0.0206268 0.0315976 0)
(0.0201735 0.031889 0)
(0.0197161 0.0321738 0)
(0.0192547 0.032452 0)
(0.0187893 0.0327237 0)
(0.0183201 0.0329886 0)
(0.0178472 0.0332469 0)
(0.0173706 0.0334983 0)
(0.0168905 0.033743 0)
(0.016407 0.0339807 0)
(0.0159201 0.0342115 0)
(0.0154299 0.0344354 0)
(0.0149366 0.0346522 0)
(0.0144403 0.0348619 0)
(0.013941 0.0350646 0)
(0.0134389 0.0352601 0)
(0.012934 0.0354484 0)
(0.0124265 0.0356295 0)
(0.0119165 0.0358033 0)
(0.011404 0.0359698 0)
(0.0108892 0.036129 0)
(0.0103722 0.0362808 0)
(0.00985307 0.0364252 0)
(0.00933193 0.0365622 0)
(0.00880889 0.0366917 0)
(0.00828406 0.0368137 0)
(0.00775753 0.0369283 0)
(0.00722942 0.0370353 0)
(0.00669984 0.0371347 0)
(0.0061689 0.0372266 0)
(0.00563669 0.0373109 0)
(0.00510333 0.0373876 0)
(0.00456894 0.0374567 0)
(0.00403361 0.0375181 0)
(0.00349746 0.0375719 0)
(0.0029606 0.037618 0)
(0.00242313 0.0376564 0)
(0.00188517 0.0376872 0)
(0.00134682 0.0377102 0)
(0.000808205 0.0377256 0)
(0.00026942 0.0377333 0)
(0.0375008 0.00026776 0)
(0.0374932 0.000803225 0)
(0.0374779 0.00133853 0)
(0.037455 0.00187356 0)
(0.0374244 0.0024082 0)
(0.0373862 0.00294236 0)
(0.0373404 0.00347591 0)
(0.0372869 0.00400876 0)
(0.0372259 0.00454079 0)
(0.0371572 0.00507189 0)
(0.037081 0.00560196 0)
(0.0369973 0.00613089 0)
(0.0369059 0.00665856 0)
(0.0368071 0.00718488 0)
(0.0367007 0.00770974 0)
(0.0365869 0.00823302 0)
(0.0364656 0.00875462 0)
(0.0363369 0.00927444 0)
(0.0362008 0.00979237 0)
(0.0360572 0.0103083 0)
(0.0359064 0.0108221 0)
(0.0357482 0.0113337 0)
(0.0355827 0.0118431 0)
(0.0354099 0.0123499 0)
(0.03523 0.0128543 0)
(0.0350428 0.0133561 0)
(0.0348485 0.0138551 0)
(0.0346471 0.0143513 0)
(0.0344387 0.0148446 0)
(0.0342232 0.0153349 0)
(0.0340007 0.015822 0)
(0.0337713 0.0163059 0)
(0.0335351 0.0167865 0)
(0.0332919 0.0172636 0)
(0.033042 0.0177372 0)
(0.0327854 0.0182072 0)
(0.032522 0.0186736 0)
(0.0322521 0.019136 0)
(0.0319755 0.0195946 0)
(0.0316925 0.0200492 0)
(0.031403 0.0204997 0)
(0.031107 0.0209461 0)
(0.0308048 0.0213881 0)
(0.0304962 0.0218258 0)
(0.0301814 0.0222591 0)
(0.0298605 0.0226878 0)
(0.0295335 0.0231119 0)
(0.0292005 0.0235312 0)
(0.0288615 0.0239458 0)
(0.0285166 0.0243555 0)
(0.0281659 0.0247602 0)
(0.0278095 0.0251599 0)
(0.0274474 0.0255544 0)
(0.0270797 0.0259437 0)
(0.0267064 0.0263278 0)
(0.0263278 0.0267064 0)
(0.0259437 0.0270797 0)
(0.0255544 0.0274474 0)
(0.0251599 0.0278095 0)
(0.0247602 0.0281659 0)
(0.0243555 0.0285166 0)
(0.0239458 0.0288615 0)
(0.0235312 0.0292005 0)
(0.0231119 0.0295335 0)
(0.0226878 0.0298605 0)
(0.0222591 0.0301814 0)
(0.0218258 0.0304962 0)
(0.0213881 0.0308048 0)
(0.0209461 0.031107 0)
(0.0204997 0.031403 0)
(0.0200492 0.0316925 0)
(0.0195946 0.0319755 0)
(0.019136 0.0322521 0)
(0.0186736 0.032522 0)
(0.0182072 0.0327854 0)
(0.0177372 0.033042 0)
(0.0172636 0.0332919 0)
(0.0167865 0.0335351 0)
(0.0163059 0.0337713 0)
(0.015822 0.0340007 0)
(0.0153349 0.0342232 0)
(0.0148446 0.0344387 0)
(0.0143513 0.0346471 0)
(0.0138551 0.0348485 0)
(0.0133561 0.0350428 0)
(0.0128543 0.03523 0)
(0.0123499 0.0354099 0)
(0.0118431 0.0355827 0)
(0.0113337 0.0357482 0)
(0.0108221 0.0359064 0)
(0.0103083 0.0360572 0)
(0.00979237 0.0362008 0)
(0.00927444 0.0363369 0)
(0.00875462 0.0364656 0)
(0.00823302 0.0365869 0)
(0.00770974 0.0367007 0)
(0.00718488 0.0368071 0)
(0.00665856 0.0369059 0)
(0.00613089 0.0369973 0)
(0.00560196 0.037081 0)
(0.00507189 0.0371572 0)
(0.00454079 0.0372259 0)
(0.00400876 0.0372869 0)
(0.00347591 0.0373404 0)
(0.00294236 0.0373862 0)
(0.0024082 0.0374244 0)
(0.00187356 0.037455 0)
(0.00133853 0.0374779 0)
(0.000803225 0.0374932 0)
(0.00026776 0.0375008 0)
(0.0372715 0.000266123 0)
(0.0372639 0.000798313 0)
(0.0372487 0.00133034 0)
(0.0372259 0.0018621 0)
(0.0371955 0.00239347 0)
(0.0371576 0.00292436 0)
(0.037112 0.00345466 0)
(0.0370589 0.00398424 0)
(0.0369982 0.00451302 0)
(0.03693 0.00504088 0)
(0.0368543 0.0055677 0)
(0.036771 0.0060934 0)
(0.0366803 0.00661785 0)
(0.036582 0.00714095 0)
(0.0364763 0.00766259 0)
(0.0363632 0.00818267 0)
(0.0362426 0.00870108 0)
(0.0361147 0.00921772 0)
(0.0359794 0.00973248 0)
(0.0358367 0.0102453 0)
(0.0356868 0.0107559 0)
(0.0355296 0.0112644 0)
(0.0353651 0.0117706 0)
(0.0351934 0.0122744 0)
(0.0350145 0.0127757 0)
(0.0348285 0.0132744 0)
(0.0346354 0.0137704 0)
(0.0344353 0.0142636 0)
(0.0342281 0.0147538 0)
(0.0340139 0.0152411 0)
(0.0337928 0.0157252 0)
(0.0335648 0.0162062 0)
(0.03333 0.0166838 0)
(0.0330883 0.017158 0)
(0.03284 0.0176288 0)
(0.0325849 0.0180959 0)
(0.0323232 0.0185594 0)
(0.0320549 0.019019 0)
(0.03178 0.0194748 0)
(0.0314987 0.0199266 0)
(0.0312109 0.0203744 0)
(0.0309168 0.020818 0)
(0.0306164 0.0212573 0)
(0.0303097 0.0216923 0)
(0.0299969 0.0221229 0)
(0.0296779 0.022549 0)
(0.0293529 0.0229705 0)
(0.0290219 0.0233873 0)
(0.028685 0.0237993 0)
(0.0283422 0.0242065 0)
(0.0279937 0.0246088 0)
(0.0276394 0.025006 0)
(0.0272795 0.0253981 0)
(0.0269141 0.0257851 0)
(0.0265431 0.0261668 0)
(0.0261668 0.0265431 0)
(0.0257851 0.0269141 0)
(0.0253981 0.0272795 0)
(0.025006 0.0276394 0)
(0.0246088 0.0279937 0)
(0.0242065 0.0283422 0)
(0.0237993 0.028685 0)
(0.0233873 0.0290219 0)
(0.0229705 0.0293529 0)
(0.022549 0.0296779 0)
(0.0221229 0.0299969 0)
(0.0216923 0.0303097 0)
(0.0212573 0.0306164 0)
(0.020818 0.0309168 0)
(0.0203744 0.0312109 0)
(0.0199266 0.0314987 0)
(0.0194748 0.03178 0)
(0.019019 0.0320549 0)
(0.0185594 0.0323232 0)
(0.0180959 0.0325849 0)
(0.0176288 0.03284 0)
(0.017158 0.0330883 0)
(0.0166838 0.03333 0)
(0.0162062 0.0335648 0)
(0.0157252 0.0337928 0)
(0.0152411 0.0340139 0)
(0.0147538 0.0342281 0)
(0.0142636 0.0344353 0)
(0.0137704 0.0346354 0)
(0.0132744 0.0348285 0)
(0.0127757 0.0350145 0)
(0.0122744 0.0351934 0)
(0.0117706 0.0353651 0)
(0.0112644 0.0355296 0)
(0.0107559 0.0356868 0)
(0.0102453 0.0358367 0)
(0.00973248 0.0359794 0)
(0.00921772 0.0361147 0)
(0.00870108 0.0362426 0)
(0.00818267 0.0363632 0)
(0.00766259 0.0364763 0)
(0.00714095 0.036582 0)
(0.00661785 0.0366803 0)
(0.0060934 0.036771 0)
(0.0055677 0.0368543 0)
(0.00504088 0.03693 0)
(0.00451302 0.0369982 0)
(0.00398424 0.0370589 0)
(0.00345466 0.037112 0)
(0.00292436 0.0371576 0)
(0.00239347 0.0371955 0)
(0.0018621 0.0372259 0)
(0.00133034 0.0372487 0)
(0.000798313 0.0372639 0)
(0.000266123 0.0372715 0)
(0.037048 0.000264526 0)
(0.0370404 0.000793525 0)
(0.0370253 0.00132236 0)
(0.0370027 0.00185093 0)
(0.0369725 0.00237912 0)
(0.0369347 0.00290683 0)
(0.0368894 0.00343394 0)
(0.0368366 0.00396035 0)
(0.0367763 0.00448595 0)
(0.0367085 0.00501064 0)
(0.0366332 0.00553431 0)
(0.0365505 0.00605685 0)
(0.0364603 0.00657815 0)
(0.0363626 0.00709812 0)
(0.0362575 0.00761663 0)
(0.0361451 0.0081336 0)
(0.0360253 0.0086489 0)
(0.0358981 0.00916244 0)
(0.0357636 0.00967411 0)
(0.0356218 0.0101838 0)
(0.0354728 0.0106914 0)
(0.0353165 0.0111969 0)
(0.035153 0.0117 0)
(0.0349823 0.0122008 0)
(0.0348045 0.0126991 0)
(0.0346197 0.0131948 0)
(0.0344277 0.0136878 0)
(0.0342287 0.014178 0)
(0.0340228 0.0146653 0)
(0.0338099 0.0151497 0)
(0.0335901 0.0156309 0)
(0.0333635 0.016109 0)
(0.0331301 0.0165837 0)
(0.0328899 0.0170551 0)
(0.032643 0.017523 0)
(0.0323895 0.0179874 0)
(0.0321293 0.018448 0)
(0.0318626 0.018905 0)
(0.0315894 0.019358 0)
(0.0313098 0.0198071 0)
(0.0310237 0.0202522 0)
(0.0307314 0.0206931 0)
(0.0304328 0.0211298 0)
(0.0301279 0.0215622 0)
(0.029817 0.0219903 0)
(0.0294999 0.0224138 0)
(0.0291768 0.0228327 0)
(0.0288478 0.0232471 0)
(0.0285129 0.0236566 0)
(0.0281722 0.0240614 0)
(0.0278258 0.0244612 0)
(0.0274736 0.024856 0)
(0.0271159 0.0252458 0)
(0.0267526 0.0256304 0)
(0.0263839 0.0260098 0)
(0.0260098 0.0263839 0)
(0.0256304 0.0267526 0)
(0.0252458 0.0271159 0)
(0.024856 0.0274736 0)
(0.0244612 0.0278258 0)
(0.0240614 0.0281722 0)
(0.0236566 0.0285129 0)
(0.0232471 0.0288478 0)
(0.0228327 0.0291768 0)
(0.0224138 0.0294999 0)
(0.0219903 0.029817 0)
(0.0215622 0.0301279 0)
(0.0211298 0.0304328 0)
(0.0206931 0.0307314 0)
(0.0202522 0.0310237 0)
(0.0198071 0.0313098 0)
(0.019358 0.0315894 0)
(0.018905 0.0318626 0)
(0.018448 0.0321293 0)
(0.0179874 0.0323895 0)
(0.017523 0.032643 0)
(0.0170551 0.0328899 0)
(0.0165837 0.0331301 0)
(0.016109 0.0333635 0)
(0.0156309 0.0335901 0)
(0.0151497 0.0338099 0)
(0.0146653 0.0340228 0)
(0.014178 0.0342287 0)
(0.0136878 0.0344277 0)
(0.0131948 0.0346197 0)
(0.0126991 0.0348045 0)
(0.0122008 0.0349823 0)
(0.0117 0.035153 0)
(0.0111969 0.0353165 0)
(0.0106914 0.0354728 0)
(0.0101838 0.0356218 0)
(0.00967411 0.0357636 0)
(0.00916244 0.0358981 0)
(0.0086489 0.0360253 0)
(0.0081336 0.0361451 0)
(0.00761663 0.0362575 0)
(0.00709812 0.0363626 0)
(0.00657815 0.0364603 0)
(0.00605685 0.0365505 0)
(0.00553431 0.0366332 0)
(0.00501064 0.0367085 0)
(0.00448595 0.0367763 0)
(0.00396035 0.0368366 0)
(0.00343394 0.0368894 0)
(0.00290683 0.0369347 0)
(0.00237912 0.0369725 0)
(0.00185093 0.0370027 0)
(0.00132236 0.0370253 0)
(0.000793525 0.0370404 0)
(0.000264526 0.037048 0)
(0.0368286 0.00026296 0)
(0.0368211 0.000788827 0)
(0.0368061 0.00131453 0)
(0.0367836 0.00183997 0)
(0.0367535 0.00236503 0)
(0.036716 0.00288961 0)
(0.036671 0.0034136 0)
(0.0366185 0.0039369 0)
(0.0365586 0.00445939 0)
(0.0364912 0.00498098 0)
(0.0364163 0.00550154 0)
(0.0363341 0.00602099 0)
(0.0362444 0.00653921 0)
(0.0361473 0.00705609 0)
(0.0360429 0.00757154 0)
(0.0359311 0.00808544 0)
(0.035812 0.00859769 0)
(0.0356855 0.00910819 0)
(0.0355518 0.00961683 0)
(0.0354109 0.0101235 0)
(0.0352627 0.0106281 0)
(0.0351074 0.0111306 0)
(0.0349448 0.0116308 0)
(0.0347752 0.0121286 0)
(0.0345985 0.0126239 0)
(0.0344147 0.0131167 0)
(0.0342239 0.0136067 0)
(0.0340261 0.0140941 0)
(0.0338213 0.0145785 0)
(0.0336097 0.01506 0)
(0.0333913 0.0155384 0)
(0.033166 0.0160136 0)
(0.0329339 0.0164855 0)
(0.0326952 0.0169541 0)
(0.0324497 0.0174193 0)
(0.0321977 0.0178809 0)
(0.0319391 0.0183388 0)
(0.0316739 0.018793 0)
(0.0314024 0.0192434 0)
(0.0311244 0.0196898 0)
(0.03084 0.0201323 0)
(0.0305494 0.0205706 0)
(0.0302526 0.0210047 0)
(0.0299495 0.0214346 0)
(0.0296404 0.0218601 0)
(0.0293252 0.0222811 0)
(0.0290041 0.0226976 0)
(0.028677 0.0231094 0)
(0.0283441 0.0235165 0)
(0.0280054 0.0239189 0)
(0.027661 0.0243163 0)
(0.027311 0.0247089 0)
(0.0269554 0.0250963 0)
(0.0265942 0.0254787 0)
(0.0262277 0.0258558 0)
(0.0258558 0.0262277 0)
(0.0254787 0.0265942 0)
(0.0250963 0.0269554 0)
(0.0247089 0.027311 0)
(0.0243163 0.027661 0)
(0.0239189 0.0280054 0)
(0.0235165 0.0283441 0)
(0.0231094 0.028677 0)
(0.0226976 0.0290041 0)
(0.0222811 0.0293252 0)
(0.0218601 0.0296404 0)
(0.0214346 0.0299495 0)
(0.0210047 0.0302526 0)
(0.0205706 0.0305494 0)
(0.0201323 0.03084 0)
(0.0196898 0.0311244 0)
(0.0192434 0.0314024 0)
(0.018793 0.0316739 0)
(0.0183388 0.0319391 0)
(0.0178809 0.0321977 0)
(0.0174193 0.0324497 0)
(0.0169541 0.0326952 0)
(0.0164855 0.0329339 0)
(0.0160136 0.033166 0)
(0.0155384 0.0333913 0)
(0.01506 0.0336097 0)
(0.0145785 0.0338213 0)
(0.0140941 0.0340261 0)
(0.0136067 0.0342239 0)
(0.0131167 0.0344147 0)
(0.0126239 0.0345985 0)
(0.0121286 0.0347752 0)
(0.0116308 0.0349448 0)
(0.0111306 0.0351074 0)
(0.0106281 0.0352627 0)
(0.0101235 0.0354109 0)
(0.00961683 0.0355518 0)
(0.00910819 0.0356855 0)
(0.00859769 0.035812 0)
(0.00808544 0.0359311 0)
(0.00757154 0.0360429 0)
(0.00705609 0.0361473 0)
(0.00653921 0.0362444 0)
(0.00602099 0.0363341 0)
(0.00550154 0.0364163 0)
(0.00498098 0.0364912 0)
(0.00445939 0.0365586 0)
(0.0039369 0.0366185 0)
(0.0034136 0.036671 0)
(0.00288961 0.036716 0)
(0.00236503 0.0367535 0)
(0.00183997 0.0367836 0)
(0.00131453 0.0368061 0)
(0.000788827 0.0368211 0)
(0.00026296 0.0368286 0)
(0.0366142 0.00026143 0)
(0.0366068 0.000784235 0)
(0.0365919 0.00130688 0)
(0.0365695 0.00182926 0)
(0.0365396 0.00235127 0)
(0.0365023 0.00287279 0)
(0.0364576 0.00339374 0)
(0.0364054 0.00391398 0)
(0.0363458 0.00443344 0)
(0.0362788 0.00495198 0)
(0.0362044 0.00546952 0)
(0.0361226 0.00598594 0)
(0.0360334 0.00650114 0)
(0.0359369 0.00701502 0)
(0.0358331 0.00752746 0)
(0.0357219 0.00803837 0)
(0.0356035 0.00854764 0)
(0.0354778 0.00905517 0)
(0.0353449 0.00956085 0)
(0.0352048 0.0100646 0)
(0.0350575 0.0105663 0)
(0.034903 0.0110658 0)
(0.0347414 0.0115631 0)
(0.0345728 0.012058 0)
(0.0343971 0.0125504 0)
(0.0342144 0.0130403 0)
(0.0340247 0.0135275 0)
(0.033828 0.014012 0)
(0.0336245 0.0144936 0)
(0.0334141 0.0149723 0)
(0.0331969 0.0154479 0)
(0.0329729 0.0159204 0)
(0.0327422 0.0163896 0)
(0.0325048 0.0168555 0)
(0.0322608 0.0173179 0)
(0.0320103 0.0177768 0)
(0.0317532 0.0182321 0)
(0.0314896 0.0186836 0)
(0.0312196 0.0191314 0)
(0.0309432 0.0195752 0)
(0.0306605 0.0200151 0)
(0.0303716 0.0204509 0)
(0.0300765 0.0208825 0)
(0.0297752 0.0213098 0)
(0.0294679 0.0217328 0)
(0.0291545 0.0221514 0)
(0.0288353 0.0225654 0)
(0.0285101 0.0229749 0)
(0.0281791 0.0233797 0)
(0.0278424 0.0237797 0)
(0.0275 0.0241748 0)
(0.027152 0.024565 0)
(0.0267985 0.0249502 0)
(0.0264394 0.0253304 0)
(0.026075 0.0257053 0)
(0.0257053 0.026075 0)
(0.0253304 0.0264394 0)
(0.0249502 0.0267985 0)
(0.024565 0.027152 0)
(0.0241748 0.0275 0)
(0.0237797 0.0278424 0)
(0.0233797 0.0281791 0)
(0.0229749 0.0285101 0)
(0.0225654 0.0288353 0)
(0.0221514 0.0291545 0)
(0.0217328 0.0294679 0)
(0.0213098 0.0297752 0)
(0.0208825 0.0300765 0)
(0.0204509 0.0303716 0)
(0.0200151 0.0306605 0)
(0.0195752 0.0309432 0)
(0.0191314 0.0312196 0)
(0.0186836 0.0314896 0)
(0.0182321 0.0317532 0)
(0.0177768 0.0320103 0)
(0.0173179 0.0322608 0)
(0.0168555 0.0325048 0)
(0.0163896 0.0327422 0)
(0.0159204 0.0329729 0)
(0.0154479 0.0331969 0)
(0.0149723 0.0334141 0)
(0.0144936 0.0336245 0)
(0.014012 0.033828 0)
(0.0135275 0.0340247 0)
(0.0130403 0.0342144 0)
(0.0125504 0.0343971 0)
(0.012058 0.0345728 0)
(0.0115631 0.0347414 0)
(0.0110658 0.034903 0)
(0.0105663 0.0350575 0)
(0.0100646 0.0352048 0)
(0.00956085 0.0353449 0)
(0.00905517 0.0354778 0)
(0.00854764 0.0356035 0)
(0.00803837 0.0357219 0)
(0.00752746 0.0358331 0)
(0.00701502 0.0359369 0)
(0.00650114 0.0360334 0)
(0.00598594 0.0361226 0)
(0.00546952 0.0362044 0)
(0.00495198 0.0362788 0)
(0.00443344 0.0363458 0)
(0.00391398 0.0364054 0)
(0.00339374 0.0364576 0)
(0.00287279 0.0365023 0)
(0.00235127 0.0365396 0)
(0.00182926 0.0365695 0)
(0.00130688 0.0365919 0)
(0.000784235 0.0366068 0)
(0.00026143 0.0366142 0)
(0.0364043 0.000259931 0)
(0.0363969 0.000779739 0)
(0.036382 0.00129939 0)
(0.0363598 0.00181877 0)
(0.0363301 0.00233778 0)
(0.036293 0.00285632 0)
(0.0362485 0.00337428 0)
(0.0361966 0.00389154 0)
(0.0361374 0.00440801 0)
(0.0360708 0.00492359 0)
(0.0359968 0.00543816 0)
(0.0359154 0.00595162 0)
(0.0358268 0.00646386 0)
(0.0357308 0.00697479 0)
(0.0356276 0.0074843 0)
(0.0355171 0.00799228 0)
(0.0353993 0.00849863 0)
(0.0352744 0.00900325 0)
(0.0351422 0.00950603 0)
(0.0350029 0.0100069 0)
(0.0348564 0.0105057 0)
(0.0347029 0.0110023 0)
(0.0345422 0.0114968 0)
(0.0343745 0.0119888 0)
(0.0341998 0.0124785 0)
(0.0340182 0.0129655 0)
(0.0338296 0.01345 0)
(0.033634 0.0139317 0)
(0.0334317 0.0144105 0)
(0.0332225 0.0148865 0)
(0.0330065 0.0153593 0)
(0.0327838 0.0158291 0)
(0.0325545 0.0162956 0)
(0.0323185 0.0167588 0)
(0.0320759 0.0172186 0)
(0.0318267 0.0176749 0)
(0.0315711 0.0181275 0)
(0.031309 0.0185765 0)
(0.0310406 0.0190217 0)
(0.0307658 0.019463 0)
(0.0304847 0.0199003 0)
(0.0301974 0.0203336 0)
(0.029904 0.0207627 0)
(0.0296045 0.0211876 0)
(0.0292989 0.0216082 0)
(0.0289874 0.0220244 0)
(0.0286699 0.022436 0)
(0.0283466 0.0228432 0)
(0.0280175 0.0232456 0)
(0.0276828 0.0236433 0)
(0.0273423 0.0240362 0)
(0.0269963 0.0244242 0)
(0.0266448 0.0248072 0)
(0.0262878 0.0251851 0)
(0.0259255 0.0255579 0)
(0.0255579 0.0259255 0)
(0.0251851 0.0262878 0)
(0.0248072 0.0266448 0)
(0.0244242 0.0269963 0)
(0.0240362 0.0273423 0)
(0.0236433 0.0276828 0)
(0.0232456 0.0280175 0)
(0.0228432 0.0283466 0)
(0.022436 0.0286699 0)
(0.0220244 0.0289874 0)
(0.0216082 0.0292989 0)
(0.0211876 0.0296045 0)
(0.0207627 0.029904 0)
(0.0203336 0.0301974 0)
(0.0199003 0.0304847 0)
(0.019463 0.0307658 0)
(0.0190217 0.0310406 0)
(0.0185765 0.031309 0)
(0.0181275 0.0315711 0)
(0.0176749 0.0318267 0)
(0.0172186 0.0320759 0)
(0.0167588 0.0323185 0)
(0.0162956 0.0325545 0)
(0.0158291 0.0327838 0)
(0.0153593 0.0330065 0)
(0.0148865 0.0332225 0)
(0.0144105 0.0334317 0)
(0.0139317 0.033634 0)
(0.01345 0.0338296 0)
(0.0129655 0.0340182 0)
(0.0124785 0.0341998 0)
(0.0119888 0.0343745 0)
(0.0114968 0.0345422 0)
(0.0110023 0.0347029 0)
(0.0105057 0.0348564 0)
(0.0100069 0.0350029 0)
(0.00950603 0.0351422 0)
(0.00900325 0.0352744 0)
(0.00849863 0.0353993 0)
(0.00799228 0.0355171 0)
(0.0074843 0.0356276 0)
(0.00697479 0.0357308 0)
(0.00646386 0.0358268 0)
(0.00595162 0.0359154 0)
(0.00543816 0.0359968 0)
(0.00492359 0.0360708 0)
(0.00440801 0.0361374 0)
(0.00389154 0.0361966 0)
(0.00337428 0.0362485 0)
(0.00285632 0.036293 0)
(0.00233778 0.0363301 0)
(0.00181877 0.0363598 0)
(0.00129939 0.036382 0)
(0.000779739 0.0363969 0)
(0.000259931 0.0364043 0)
(0.036199 0.000258465 0)
(0.0361916 0.000775341 0)
(0.0361768 0.00129206 0)
(0.0361547 0.00180851 0)
(0.0361252 0.0023246 0)
(0.0360883 0.00284021 0)
(0.0360441 0.00335525 0)
(0.0359925 0.00386959 0)
(0.0359336 0.00438315 0)
(0.0358673 0.00489582 0)
(0.0357938 0.00540749 0)
(0.0357129 0.00591805 0)
(0.0356247 0.00642741 0)
(0.0355293 0.00693546 0)
(0.0354267 0.00744209 0)
(0.0353168 0.00794721 0)
(0.0351997 0.0084507 0)
(0.0350754 0.00895247 0)
(0.034944 0.00945242 0)
(0.0348055 0.00995044 0)
(0.0346599 0.0104464 0)
(0.0345072 0.0109403 0)
(0.0343474 0.0114319 0)
(0.0341807 0.0119212 0)
(0.034007 0.0124081 0)
(0.0338263 0.0128924 0)
(0.0336388 0.0133741 0)
(0.0334444 0.0138531 0)
(0.0332431 0.0143293 0)
(0.0330351 0.0148025 0)
(0.0328204 0.0152727 0)
(0.032599 0.0157398 0)
(0.0323709 0.0162037 0)
(0.0321362 0.0166643 0)
(0.031895 0.0171215 0)
(0.0316472 0.0175752 0)
(0.031393 0.0180253 0)
(0.0311324 0.0184717 0)
(0.0308655 0.0189144 0)
(0.0305923 0.0193532 0)
(0.0303128 0.0197881 0)
(0.0300271 0.0202189 0)
(0.0297354 0.0206456 0)
(0.0294375 0.0210681 0)
(0.0291337 0.0214863 0)
(0.0288239 0.0219002 0)
(0.0285082 0.0223095 0)
(0.0281868 0.0227143 0)
(0.0278595 0.0231145 0)
(0.0275266 0.02351 0)
(0.0271881 0.0239006 0)
(0.0268441 0.0242864 0)
(0.0264945 0.0246673 0)
(0.0261396 0.0250431 0)
(0.0257793 0.0254138 0)
(0.0254138 0.0257793 0)
(0.0250431 0.0261396 0)
(0.0246673 0.0264945 0)
(0.0242864 0.0268441 0)
(0.0239006 0.0271881 0)
(0.02351 0.0275266 0)
(0.0231145 0.0278595 0)
(0.0227143 0.0281868 0)
(0.0223095 0.0285082 0)
(0.0219002 0.0288239 0)
(0.0214863 0.0291337 0)
(0.0210681 0.0294375 0)
(0.0206456 0.0297354 0)
(0.0202189 0.0300271 0)
(0.0197881 0.0303128 0)
(0.0193532 0.0305923 0)
(0.0189144 0.0308655 0)
(0.0184717 0.0311324 0)
(0.0180253 0.031393 0)
(0.0175752 0.0316472 0)
(0.0171215 0.031895 0)
(0.0166643 0.0321362 0)
(0.0162037 0.0323709 0)
(0.0157398 0.032599 0)
(0.0152727 0.0328204 0)
(0.0148025 0.0330351 0)
(0.0143293 0.0332431 0)
(0.0138531 0.0334444 0)
(0.0133741 0.0336388 0)
(0.0128924 0.0338263 0)
(0.0124081 0.034007 0)
(0.0119212 0.0341807 0)
(0.0114319 0.0343474 0)
(0.0109403 0.0345072 0)
(0.0104464 0.0346599 0)
(0.00995044 0.0348055 0)
(0.00945242 0.034944 0)
(0.00895247 0.0350754 0)
(0.0084507 0.0351997 0)
(0.00794721 0.0353168 0)
(0.00744209 0.0354267 0)
(0.00693546 0.0355293 0)
(0.00642741 0.0356247 0)
(0.00591805 0.0357129 0)
(0.00540749 0.0357938 0)
(0.00489582 0.0358673 0)
(0.00438315 0.0359336 0)
(0.00386959 0.0359925 0)
(0.00335525 0.0360441 0)
(0.00284021 0.0360883 0)
(0.0023246 0.0361252 0)
(0.00180851 0.0361547 0)
(0.00129206 0.0361768 0)
(0.000775341 0.0361916 0)
(0.000258465 0.036199 0)
(0.0359981 0.00025703 0)
(0.0359907 0.000771038 0)
(0.0359761 0.00128489 0)
(0.035954 0.00179848 0)
(0.0359247 0.0023117 0)
(0.035888 0.00282445 0)
(0.035844 0.00333662 0)
(0.0357927 0.00384812 0)
(0.0357341 0.00435883 0)
(0.0356683 0.00486865 0)
(0.0355951 0.00537747 0)
(0.0355147 0.00588521 0)
(0.035427 0.00639174 0)
(0.0353321 0.00689697 0)
(0.03523 0.00740079 0)
(0.0351208 0.0079031 0)
(0.0350043 0.0084038 0)
(0.0348808 0.00890279 0)
(0.0347501 0.00939996 0)
(0.0346123 0.00989521 0)
(0.0344675 0.0103884 0)
(0.0343156 0.0108796 0)
(0.0341568 0.0113685 0)
(0.033991 0.0118551 0)
(0.0338182 0.0123392 0)
(0.0336386 0.0128209 0)
(0.0334521 0.0132999 0)
(0.0332587 0.0137762 0)
(0.0330586 0.0142497 0)
(0.0328518 0.0147203 0)
(0.0326382 0.0151879 0)
(0.032418 0.0156525 0)
(0.0321912 0.0161138 0)
(0.0319578 0.0165718 0)
(0.0317179 0.0170265 0)
(0.0314716 0.0174776 0)
(0.0312188 0.0179252 0)
(0.0309597 0.0183692 0)
(0.0306942 0.0188094 0)
(0.0304225 0.0192458 0)
(0.0301446 0.0196783 0)
(0.0298605 0.0201067 0)
(0.0295703 0.020531 0)
(0.0292741 0.0209512 0)
(0.028972 0.0213671 0)
(0.0286639 0.0217786 0)
(0.02835 0.0221857 0)
(0.0280303 0.0225883 0)
(0.0277049 0.0229862 0)
(0.0273739 0.0233795 0)
(0.0270372 0.023768 0)
(0.0266951 0.0241516 0)
(0.0263475 0.0245304 0)
(0.0259945 0.0249041 0)
(0.0256362 0.0252727 0)
(0.0252727 0.0256362 0)
(0.0249041 0.0259945 0)
(0.0245304 0.0263475 0)
(0.0241516 0.0266951 0)
(0.023768 0.0270372 0)
(0.0233795 0.0273739 0)
(0.0229862 0.0277049 0)
(0.0225883 0.0280303 0)
(0.0221857 0.02835 0)
(0.0217786 0.0286639 0)
(0.0213671 0.028972 0)
(0.0209512 0.0292741 0)
(0.020531 0.0295703 0)
(0.0201067 0.0298605 0)
(0.0196783 0.0301446 0)
(0.0192458 0.0304225 0)
(0.0188094 0.0306942 0)
(0.0183692 0.0309597 0)
(0.0179252 0.0312188 0)
(0.0174776 0.0314716 0)
(0.0170265 0.0317179 0)
(0.0165718 0.0319578 0)
(0.0161138 0.0321912 0)
(0.0156525 0.032418 0)
(0.0151879 0.0326382 0)
(0.0147203 0.0328518 0)
(0.0142497 0.0330586 0)
(0.0137762 0.0332587 0)
(0.0132999 0.0334521 0)
(0.0128209 0.0336386 0)
(0.0123392 0.0338182 0)
(0.0118551 0.033991 0)
(0.0113685 0.0341568 0)
(0.0108796 0.0343156 0)
(0.0103885 0.0344675 0)
(0.00989521 0.0346123 0)
(0.00939996 0.0347501 0)
(0.00890279 0.0348808 0)
(0.0084038 0.0350043 0)
(0.0079031 0.0351208 0)
(0.00740079 0.03523 0)
(0.00689697 0.0353321 0)
(0.00639174 0.035427 0)
(0.00588521 0.0355147 0)
(0.00537747 0.0355951 0)
(0.00486865 0.0356683 0)
(0.00435883 0.0357341 0)
(0.00384812 0.0357927 0)
(0.00333662 0.035844 0)
(0.00282445 0.035888 0)
(0.0023117 0.0359247 0)
(0.00179848 0.035954 0)
(0.00128489 0.0359761 0)
(0.000771038 0.0359907 0)
(0.00025703 0.0359981 0)
(0.0358016 0.000255627 0)
(0.0357943 0.000766829 0)
(0.0357797 0.00127788 0)
(0.0357578 0.00178866 0)
(0.0357286 0.00229908 0)
(0.0356921 0.00280903 0)
(0.0356484 0.00331841 0)
(0.0355974 0.00382711 0)
(0.0355391 0.00433504 0)
(0.0354736 0.00484207 0)
(0.0354008 0.00534812 0)
(0.0353208 0.00585308 0)
(0.0352337 0.00635685 0)
(0.0351393 0.00685932 0)
(0.0350378 0.00736039 0)
(0.0349291 0.00785996 0)
(0.0348133 0.00835793 0)
(0.0346904 0.00885419 0)
(0.0345604 0.00934865 0)
(0.0344234 0.0098412 0)
(0.0342794 0.0103317 0)
(0.0341283 0.0108202 0)
(0.0339703 0.0113064 0)
(0.0338054 0.0117903 0)
(0.0336336 0.0122719 0)
(0.033455 0.0127509 0)
(0.0332695 0.0132273 0)
(0.0330772 0.013701 0)
(0.0328782 0.014172 0)
(0.0326725 0.01464 0)
(0.0324601 0.015105 0)
(0.0322411 0.015567 0)
(0.0320155 0.0160258 0)
(0.0317834 0.0164814 0)
(0.0315448 0.0169335 0)
(0.0312998 0.0173822 0)
(0.0310484 0.0178274 0)
(0.0307907 0.0182689 0)
(0.0305267 0.0187068 0)
(0.0302564 0.0191408 0)
(0.02998 0.0195709 0)
(0.0296975 0.019997 0)
(0.0294089 0.020419 0)
(0.0291144 0.0208368 0)
(0.0288138 0.0212505 0)
(0.0285075 0.0216597 0)
(0.0281953 0.0220646 0)
(0.0278773 0.022465 0)
(0.0275537 0.0228607 0)
(0.0272244 0.0232519 0)
(0.0268896 0.0236383 0)
(0.0265494 0.0240198 0)
(0.0262037 0.0243965 0)
(0.0258526 0.0247682 0)
(0.0254963 0.0251348 0)
(0.0251348 0.0254963 0)
(0.0247682 0.0258526 0)
(0.0243965 0.0262037 0)
(0.0240198 0.0265494 0)
(0.0236383 0.0268896 0)
(0.0232519 0.0272244 0)
(0.0228607 0.0275537 0)
(0.022465 0.0278773 0)
(0.0220646 0.0281953 0)
(0.0216597 0.0285075 0)
(0.0212505 0.0288138 0)
(0.0208368 0.0291144 0)
(0.020419 0.0294089 0)
(0.019997 0.0296975 0)
(0.0195709 0.02998 0)
(0.0191408 0.0302564 0)
(0.0187068 0.0305267 0)
(0.0182689 0.0307907 0)
(0.0178274 0.0310484 0)
(0.0173822 0.0312998 0)
(0.0169335 0.0315448 0)
(0.0164814 0.0317834 0)
(0.0160258 0.0320155 0)
(0.015567 0.0322411 0)
(0.015105 0.0324601 0)
(0.01464 0.0326725 0)
(0.014172 0.0328782 0)
(0.013701 0.0330772 0)
(0.0132273 0.0332695 0)
(0.0127509 0.033455 0)
(0.0122719 0.0336336 0)
(0.0117903 0.0338054 0)
(0.0113064 0.0339703 0)
(0.0108202 0.0341283 0)
(0.0103317 0.0342794 0)
(0.0098412 0.0344234 0)
(0.00934865 0.0345604 0)
(0.00885419 0.0346904 0)
(0.00835793 0.0348133 0)
(0.00785996 0.0349291 0)
(0.00736039 0.0350378 0)
(0.00685932 0.0351393 0)
(0.00635685 0.0352337 0)
(0.00585308 0.0353208 0)
(0.00534812 0.0354008 0)
(0.00484207 0.0354736 0)
(0.00433504 0.0355391 0)
(0.00382711 0.0355974 0)
(0.00331841 0.0356484 0)
(0.00280903 0.0356921 0)