/*--------------------------------*- C++ -*----------------------------------*\
| =========                 |                                                 |
| \\      /  F ield         | OpenFOAM: The Open Source CFD Toolbox           |
|  \\    /   O peration     | Version:  2312                                  |
|   \\  /    A nd           | Website:  www.openfoam.com                      |
|    \\/     M anipulation  |                                                 |
\*---------------------------------------------------------------------------*/
FoamFile
{
    version     2.0;
    format      ascii;
    arch        "LSB;label=32;scalar=64";
    class       pointVectorField;
    location    "20";
    object      pointD;
}
// * * * * * * * * * * * * * * * * * * * * * * * * * * * * * * * * * * * * * //

dimensions      [0 1 0 0 0 0 0];

internalField   nonuniform List<vector> 
26196
(
(0.530211 0 0)
(0.38296 0 0)
(0 0.530211 0)
(0 0.38296 0)
(0.530211 0 0)
(0.38296 0 0)
(0 0.38296 0)
(0 0.530211 0)
(0.525468 0 0)
(0.520849 0 0)
(0.516406 0 0)
(0.512076 0 0)
(0.507885 0 0)
(0.503814 0 0)
(0.499865 0 0)
(0.496031 0 0)
(0.492311 0 0)
(0.488698 0 0)
(0.485191 0 0)
(0.481786 0 0)
(0.47848 0 0)
(0.475269 0 0)
(0.47215 0 0)
(0.469122 0 0)
(0.46618 0 0)
(0.463322 0 0)
(0.460546 0 0)
(0.45785 0 0)
(0.45523 0 0)
(0.452686 0 0)
(0.450213 0 0)
(0.447812 0 0)
(0.445478 0 0)
(0.443211 0 0)
(0.441009 0 0)
(0.43887 0 0)
(0.436791 0 0)
(0.434773 0 0)
(0.432811 0 0)
(0.430907 0 0)
(0.429056 0 0)
(0.42726 0 0)
(0.425515 0 0)
(0.42382 0 0)
(0.422175 0 0)
(0.420578 0 0)
(0.419028 0 0)
(0.417523 0 0)
(0.416062 0 0)
(0.414645 0 0)
(0.41327 0 0)
(0.411937 0 0)
(0.410643 0 0)
(0.409389 0 0)
(0.408173 0 0)
(0.406994 0 0)
(0.405852 0 0)
(0.404746 0 0)
(0.403674 0 0)
(0.402636 0 0)
(0.401632 0 0)
(0.40066 0 0)
(0.39972 0 0)
(0.398811 0 0)
(0.397932 0 0)
(0.397083 0 0)
(0.396262 0 0)
(0.395471 0 0)
(0.394707 0 0)
(0.39397 0 0)
(0.393259 0 0)
(0.392575 0 0)
(0.391916 0 0)
(0.391282 0 0)
(0.390673 0 0)
(0.390087 0 0)
(0.389525 0 0)
(0.388986 0 0)
(0.388469 0 0)
(0.387974 0 0)
(0.387501 0 0)
(0.387049 0 0)
(0.386618 0 0)
(0.386207 0 0)
(0.385816 0 0)
(0.385444 0 0)
(0.385092 0 0)
(0.384758 0 0)
(0.384443 0 0)
(0.384146 0 0)
(0.383867 0 0)
(0.383605 0 0)
(0.38336 0 0)
(0.383132 0 0)
(0.38292 0 0)
(0.382725 0 0)
(0.382545 0 0)
(0.382382 0 0)
(0.382233 0 0)
(0.382099 0 0)
(0.38198 0 0)
(0.381876 0 0)
(0.381786 0 0)
(0.38171 0 0)
(0.381647 0 0)
(0.381598 0 0)
(0.381563 0 0)
(0.38154 0 0)
(0.381531 0 0)
(0.381534 0 0)
(0.381549 0 0)
(0.381577 0 0)
(0.381616 0 0)
(0.381667 0 0)
(0.38173 0 0)
(0.381805 0 0)
(0.38189 0 0)
(0.381987 0 0)
(0.382094 0 0)
(0.382213 0 0)
(0.382341 0 0)
(0.382481 0 0)
(0.382629 0 0)
(0.38279 0 0)
(0.382921 0.00546847 0)
(0.382804 0.0109358 0)
(0.382608 0.0164009 0)
(0.382335 0.0218627 0)
(0.381984 0.02732 0)
(0.381555 0.0327718 0)
(0.381048 0.0382169 0)
(0.380464 0.0436541 0)
(0.379801 0.0490825 0)
(0.379062 0.0545009 0)
(0.378245 0.0599081 0)
(0.377351 0.0653032 0)
(0.37638 0.0706849 0)
(0.375332 0.0760522 0)
(0.374208 0.081404 0)
(0.373007 0.0867392 0)
(0.371731 0.0920567 0)
(0.370378 0.0973554 0)
(0.36895 0.102634 0)
(0.367447 0.107892 0)
(0.365869 0.113128 0)
(0.364216 0.118341 0)
(0.362489 0.12353 0)
(0.360689 0.128693 0)
(0.358814 0.133831 0)
(0.356867 0.138941 0)
(0.354846 0.144022 0)
(0.352753 0.149075 0)
(0.350589 0.154097 0)
(0.348353 0.159087 0)
(0.346045 0.164045 0)
(0.343668 0.16897 0)
(0.34122 0.17386 0)
(0.338702 0.178715 0)
(0.336116 0.183533 0)
(0.333461 0.188314 0)
(0.330738 0.193056 0)
(0.327947 0.19776 0)
(0.32509 0.202422 0)
(0.322166 0.207044 0)
(0.319177 0.211623 0)
(0.316123 0.216159 0)
(0.313004 0.220651 0)
(0.309821 0.225098 0)
(0.306575 0.229499 0)
(0.303267 0.233854 0)
(0.299897 0.23816 0)
(0.296465 0.242418 0)
(0.292973 0.246627 0)
(0.289422 0.250785 0)
(0.285811 0.254893 0)
(0.282142 0.258948 0)
(0.278416 0.26295 0)
(0.274633 0.266899 0)
(0.270794 0.270794 0)
(0.266899 0.274633 0)
(0.26295 0.278416 0)
(0.258948 0.282142 0)
(0.254893 0.285811 0)
(0.250785 0.289422 0)
(0.246627 0.292973 0)
(0.242418 0.296465 0)
(0.23816 0.299897 0)
(0.233854 0.303267 0)
(0.229499 0.306575 0)
(0.225098 0.309821 0)
(0.220651 0.313004 0)
(0.216159 0.316123 0)
(0.211623 0.319177 0)
(0.207044 0.322166 0)
(0.202422 0.32509 0)
(0.197759 0.327947 0)
(0.193056 0.330738 0)
(0.188314 0.333461 0)
(0.183533 0.336116 0)
(0.178715 0.338702 0)
(0.17386 0.34122 0)
(0.16897 0.343668 0)
(0.164045 0.346045 0)
(0.159087 0.348353 0)
(0.154097 0.350589 0)
(0.149075 0.352753 0)
(0.144022 0.354846 0)
(0.138941 0.356867 0)
(0.133831 0.358814 0)
(0.128693 0.360689 0)
(0.12353 0.362489 0)
(0.118341 0.364216 0)
(0.113128 0.365869 0)
(0.107892 0.367447 0)
(0.102634 0.36895 0)
(0.0973554 0.370378 0)
(0.0920567 0.371731 0)
(0.0867392 0.373007 0)
(0.081404 0.374208 0)
(0.0760522 0.375332 0)
(0.0706849 0.37638 0)
(0.0653032 0.377351 0)
(0.0599081 0.378245 0)
(0.0545009 0.379062 0)
(0.0490825 0.379801 0)
(0.0436541 0.380464 0)
(0.0382169 0.381048 0)
(0.0327718 0.381555 0)
(0.02732 0.381984 0)
(0.0218627 0.382335 0)
(0.0164009 0.382608 0)
(0.0109358 0.382804 0)
(0.00546847 0.382921 0)
(0 0.38279 0)
(0 0.382629 0)
(0 0.382481 0)
(0 0.382341 0)
(0 0.382213 0)
(0 0.382094 0)
(0 0.381987 0)
(0 0.38189 0)
(0 0.381805 0)
(0 0.38173 0)
(0 0.381667 0)
(0 0.381616 0)
(0 0.381577 0)
(0 0.381549 0)
(0 0.381534 0)
(0 0.381531 0)
(0 0.38154 0)
(0 0.381563 0)
(0 0.381598 0)
(0 0.381647 0)
(0 0.38171 0)
(0 0.381786 0)
(0 0.381876 0)
(0 0.38198 0)
(0 0.382099 0)
(0 0.382233 0)
(0 0.382382 0)
(0 0.382545 0)
(0 0.382725 0)
(0 0.38292 0)
(0 0.383132 0)
(0 0.38336 0)
(0 0.383605 0)
(0 0.383867 0)
(0 0.384146 0)
(0 0.384443 0)
(0 0.384758 0)
(0 0.385092 0)
(0 0.385444 0)
(0 0.385816 0)
(0 0.386207 0)
(0 0.386618 0)
(0 0.387049 0)
(0 0.387501 0)
(0 0.387974 0)
(0 0.388469 0)
(0 0.388986 0)
(0 0.389525 0)
(0 0.390087 0)
(0 0.390673 0)
(0 0.391282 0)
(0 0.391916 0)
(0 0.392575 0)
(0 0.393259 0)
(0 0.39397 0)
(0 0.394707 0)
(0 0.395471 0)
(0 0.396262 0)
(0 0.397083 0)
(0 0.397932 0)
(0 0.398811 0)
(0 0.39972 0)
(0 0.40066 0)
(0 0.401632 0)
(0 0.402636 0)
(0 0.403674 0)
(0 0.404746 0)
(0 0.405852 0)
(0 0.406994 0)
(0 0.408173 0)
(0 0.409389 0)
(0 0.410643 0)
(0 0.411937 0)
(0 0.41327 0)
(0 0.414645 0)
(0 0.416062 0)
(0 0.417523 0)
(0 0.419028 0)
(0 0.420578 0)
(0 0.422175 0)
(0 0.42382 0)
(0 0.425515 0)
(0 0.42726 0)
(0 0.429056 0)
(0 0.430907 0)
(0 0.432811 0)
(0 0.434773 0)
(0 0.436791 0)
(0 0.43887 0)
(0 0.441009 0)
(0 0.443211 0)
(0 0.445478 0)
(0 0.447812 0)
(0 0.450213 0)
(0 0.452686 0)
(0 0.45523 0)
(0 0.45785 0)
(0 0.460546 0)
(0 0.463322 0)
(0 0.46618 0)
(0 0.469122 0)
(0 0.47215 0)
(0 0.475269 0)
(0 0.47848 0)
(0 0.481786 0)
(0 0.485191 0)
(0 0.488698 0)
(0 0.492311 0)
(0 0.496031 0)
(0 0.499865 0)
(0 0.503814 0)
(0 0.507885 0)
(0 0.512076 0)
(0 0.516406 0)
(0 0.520849 0)
(0 0.525468 0)
(0.00757114 0.530157 0)
(0.0151407 0.529995 0)
(0.0227073 0.529725 0)
(0.0302691 0.529347 0)
(0.0378249 0.528861 0)
(0.0453728 0.528266 0)
(0.0529116 0.527565 0)
(0.0604396 0.526755 0)
(0.0679552 0.525839 0)
(0.075457 0.524815 0)
(0.0829433 0.523684 0)
(0.0904128 0.522446 0)
(0.0978639 0.521102 0)
(0.105295 0.519651 0)
(0.112705 0.518094 0)
(0.120091 0.516432 0)
(0.127453 0.514665 0)
(0.134789 0.512792 0)
(0.142098 0.510815 0)
(0.149378 0.508734 0)
(0.156627 0.506549 0)
(0.163844 0.504261 0)
(0.171028 0.50187 0)
(0.178177 0.499377 0)
(0.18529 0.496781 0)
(0.192365 0.494085 0)
(0.1994 0.491288 0)
(0.206395 0.48839 0)
(0.213348 0.485393 0)
(0.220258 0.482297 0)
(0.227122 0.479103 0)
(0.23394 0.475811 0)
(0.240711 0.472422 0)
(0.247432 0.468936 0)
(0.254103 0.465355 0)
(0.260722 0.46168 0)
(0.267288 0.457909 0)
(0.2738 0.454046 0)
(0.280255 0.45009 0)
(0.286654 0.446042 0)
(0.292994 0.441904 0)
(0.299274 0.437675 0)
(0.305494 0.433357 0)
(0.31165 0.42895 0)
(0.317744 0.424456 0)
(0.323772 0.419876 0)
(0.329735 0.41521 0)
(0.33563 0.410459 0)
(0.341457 0.405624 0)
(0.347215 0.400707 0)
(0.352901 0.395708 0)
(0.358516 0.390629 0)
(0.364057 0.385469 0)
(0.369524 0.380231 0)
(0.374916 0.374916 0)
(0.380231 0.369524 0)
(0.385469 0.364057 0)
(0.390629 0.358516 0)
(0.395708 0.352901 0)
(0.400707 0.347215 0)
(0.405624 0.341457 0)
(0.410459 0.33563 0)
(0.41521 0.329735 0)
(0.419876 0.323772 0)
(0.424456 0.317744 0)
(0.42895 0.31165 0)
(0.433357 0.305494 0)
(0.437675 0.299274 0)
(0.441904 0.292994 0)
(0.446042 0.286654 0)
(0.45009 0.280255 0)
(0.454046 0.2738 0)
(0.457909 0.267288 0)
(0.46168 0.260722 0)
(0.465355 0.254103 0)
(0.468936 0.247432 0)
(0.472422 0.240711 0)
(0.475811 0.23394 0)
(0.479103 0.227122 0)
(0.482297 0.220258 0)
(0.485393 0.213348 0)
(0.48839 0.206395 0)
(0.491288 0.1994 0)
(0.494085 0.192365 0)
(0.496781 0.18529 0)
(0.499377 0.178177 0)
(0.50187 0.171028 0)
(0.504261 0.163844 0)
(0.506549 0.156627 0)
(0.508734 0.149378 0)
(0.510815 0.142098 0)
(0.512792 0.134789 0)
(0.514665 0.127453 0)
(0.516432 0.120091 0)
(0.518094 0.112705 0)
(0.519651 0.105295 0)
(0.521102 0.0978639 0)
(0.522446 0.0904128 0)
(0.523684 0.0829433 0)
(0.524815 0.075457 0)
(0.525839 0.0679552 0)
(0.526755 0.0604396 0)
(0.527565 0.0529116 0)
(0.528266 0.0453728 0)
(0.528861 0.0378249 0)
(0.529347 0.0302691 0)
(0.529725 0.0227073 0)
(0.529995 0.0151407 0)
(0.530157 0.00757114 0)
(0.525468 0 0)
(0.520849 0 0)
(0.516406 0 0)
(0.512076 0 0)
(0.507885 0 0)
(0.503814 0 0)
(0.499865 0 0)
(0.496031 0 0)
(0.492311 0 0)
(0.488698 0 0)
(0.485191 0 0)
(0.481786 0 0)
(0.47848 0 0)
(0.475269 0 0)
(0.47215 0 0)
(0.469122 0 0)
(0.46618 0 0)
(0.463322 0 0)
(0.460546 0 0)
(0.45785 0 0)
(0.45523 0 0)
(0.452686 0 0)
(0.450213 0 0)
(0.447812 0 0)
(0.445478 0 0)
(0.443211 0 0)
(0.441009 0 0)
(0.43887 0 0)
(0.436791 0 0)
(0.434773 0 0)
(0.432811 0 0)
(0.430907 0 0)
(0.429056 0 0)
(0.42726 0 0)
(0.425515 0 0)
(0.42382 0 0)
(0.422175 0 0)
(0.420578 0 0)
(0.419028 0 0)
(0.417523 0 0)
(0.416062 0 0)
(0.414645 0 0)
(0.41327 0 0)
(0.411937 0 0)
(0.410643 0 0)
(0.409389 0 0)
(0.408173 0 0)
(0.406994 0 0)
(0.405852 0 0)
(0.404746 0 0)
(0.403674 0 0)
(0.402636 0 0)
(0.401632 0 0)
(0.40066 0 0)
(0.39972 0 0)
(0.398811 0 0)
(0.397932 0 0)
(0.397083 0 0)
(0.396262 0 0)
(0.395471 0 0)
(0.394707 0 0)
(0.39397 0 0)
(0.393259 0 0)
(0.392575 0 0)
(0.391916 0 0)
(0.391282 0 0)
(0.390673 0 0)
(0.390087 0 0)
(0.389525 0 0)
(0.388986 0 0)
(0.388469 0 0)
(0.387974 0 0)
(0.387501 0 0)
(0.387049 0 0)
(0.386618 0 0)
(0.386207 0 0)
(0.385816 0 0)
(0.385444 0 0)
(0.385092 0 0)
(0.384758 0 0)
(0.384443 0 0)
(0.384146 0 0)
(0.383867 0 0)
(0.383605 0 0)
(0.38336 0 0)
(0.383132 0 0)
(0.38292 0 0)
(0.382725 0 0)
(0.382545 0 0)
(0.382382 0 0)
(0.382233 0 0)
(0.382099 0 0)
(0.38198 0 0)
(0.381876 0 0)
(0.381786 0 0)
(0.38171 0 0)
(0.381647 0 0)
(0.381598 0 0)
(0.381563 0 0)
(0.38154 0 0)
(0.381531 0 0)
(0.381534 0 0)
(0.381549 0 0)
(0.381577 0 0)
(0.381616 0 0)
(0.381667 0 0)
(0.38173 0 0)
(0.381805 0 0)
(0.38189 0 0)
(0.381987 0 0)
(0.382094 0 0)
(0.382213 0 0)
(0.382341 0 0)
(0.382481 0 0)
(0.382629 0 0)
(0.38279 0 0)
(0.382921 0.00546847 0)
(0.382804 0.0109358 0)
(0.382608 0.0164009 0)
(0.382335 0.0218627 0)
(0.381984 0.02732 0)
(0.381555 0.0327718 0)
(0.381048 0.0382169 0)
(0.380464 0.0436541 0)
(0.379801 0.0490825 0)
(0.379062 0.0545009 0)
(0.378245 0.0599081 0)
(0.377351 0.0653032 0)
(0.37638 0.0706849 0)
(0.375332 0.0760522 0)
(0.374208 0.081404 0)
(0.373007 0.0867392 0)
(0.371731 0.0920567 0)
(0.370378 0.0973554 0)
(0.36895 0.102634 0)
(0.367447 0.107892 0)
(0.365869 0.113128 0)
(0.364216 0.118341 0)
(0.362489 0.12353 0)
(0.360689 0.128693 0)
(0.358814 0.133831 0)
(0.356867 0.138941 0)
(0.354846 0.144022 0)
(0.352753 0.149075 0)
(0.350589 0.154097 0)
(0.348353 0.159087 0)
(0.346045 0.164045 0)
(0.343668 0.16897 0)
(0.34122 0.17386 0)
(0.338702 0.178715 0)
(0.336116 0.183533 0)
(0.333461 0.188314 0)
(0.330738 0.193056 0)
(0.327947 0.19776 0)
(0.32509 0.202422 0)
(0.322166 0.207044 0)
(0.319177 0.211623 0)
(0.316123 0.216159 0)
(0.313004 0.220651 0)
(0.309821 0.225098 0)
(0.306575 0.229499 0)
(0.303267 0.233854 0)
(0.299897 0.23816 0)
(0.296465 0.242418 0)
(0.292973 0.246627 0)
(0.289422 0.250785 0)
(0.285811 0.254893 0)
(0.282142 0.258948 0)
(0.278416 0.26295 0)
(0.274633 0.266899 0)
(0.270794 0.270794 0)
(0.266899 0.274633 0)
(0.26295 0.278416 0)
(0.258948 0.282142 0)
(0.254893 0.285811 0)
(0.250785 0.289422 0)
(0.246627 0.292973 0)
(0.242418 0.296465 0)
(0.23816 0.299897 0)
(0.233854 0.303267 0)
(0.229499 0.306575 0)
(0.225098 0.309821 0)
(0.220651 0.313004 0)
(0.216159 0.316123 0)
(0.211623 0.319177 0)
(0.207044 0.322166 0)
(0.202422 0.32509 0)
(0.197759 0.327947 0)
(0.193056 0.330738 0)
(0.188314 0.333461 0)
(0.183533 0.336116 0)
(0.178715 0.338702 0)
(0.17386 0.34122 0)
(0.16897 0.343668 0)
(0.164045 0.346045 0)
(0.159087 0.348353 0)
(0.154097 0.350589 0)
(0.149075 0.352753 0)
(0.144022 0.354846 0)
(0.138941 0.356867 0)
(0.133831 0.358814 0)
(0.128693 0.360689 0)
(0.12353 0.362489 0)
(0.118341 0.364216 0)
(0.113128 0.365869 0)
(0.107892 0.367447 0)
(0.102634 0.36895 0)
(0.0973554 0.370378 0)
(0.0920567 0.371731 0)
(0.0867392 0.373007 0)
(0.081404 0.374208 0)
(0.0760522 0.375332 0)
(0.0706849 0.37638 0)
(0.0653032 0.377351 0)
(0.0599081 0.378245 0)
(0.0545009 0.379062 0)
(0.0490825 0.379801 0)
(0.0436541 0.380464 0)
(0.0382169 0.381048 0)
(0.0327718 0.381555 0)
(0.02732 0.381984 0)
(0.0218627 0.382335 0)
(0.0164009 0.382608 0)
(0.0109358 0.382804 0)
(0.00546847 0.382921 0)
(0 0.38279 0)
(0 0.382629 0)
(0 0.382481 0)
(0 0.382341 0)
(0 0.382213 0)
(0 0.382094 0)
(0 0.381987 0)
(0 0.38189 0)
(0 0.381805 0)
(0 0.38173 0)
(0 0.381667 0)
(0 0.381616 0)
(0 0.381577 0)
(0 0.381549 0)
(0 0.381534 0)
(0 0.381531 0)
(0 0.38154 0)
(0 0.381563 0)
(0 0.381598 0)
(0 0.381647 0)
(0 0.38171 0)
(0 0.381786 0)
(0 0.381876 0)
(0 0.38198 0)
(0 0.382099 0)
(0 0.382233 0)
(0 0.382382 0)
(0 0.382545 0)
(0 0.382725 0)
(0 0.38292 0)
(0 0.383132 0)
(0 0.38336 0)
(0 0.383605 0)
(0 0.383867 0)
(0 0.384146 0)
(0 0.384443 0)
(0 0.384758 0)
(0 0.385092 0)
(0 0.385444 0)
(0 0.385816 0)
(0 0.386207 0)
(0 0.386618 0)
(0 0.387049 0)
(0 0.387501 0)
(0 0.387974 0)
(0 0.388469 0)
(0 0.388986 0)
(0 0.389525 0)
(0 0.390087 0)
(0 0.390673 0)
(0 0.391282 0)
(0 0.391916 0)
(0 0.392575 0)
(0 0.393259 0)
(0 0.39397 0)
(0 0.394707 0)
(0 0.395471 0)
(0 0.396262 0)
(0 0.397083 0)
(0 0.397932 0)
(0 0.398811 0)
(0 0.39972 0)
(0 0.40066 0)
(0 0.401632 0)
(0 0.402636 0)
(0 0.403674 0)
(0 0.404746 0)
(0 0.405852 0)
(0 0.406994 0)
(0 0.408173 0)
(0 0.409389 0)
(0 0.410643 0)
(0 0.411937 0)
(0 0.41327 0)
(0 0.414645 0)
(0 0.416062 0)
(0 0.417523 0)
(0 0.419028 0)
(0 0.420578 0)
(0 0.422175 0)
(0 0.42382 0)
(0 0.425515 0)
(0 0.42726 0)
(0 0.429056 0)
(0 0.430907 0)
(0 0.432811 0)
(0 0.434773 0)
(0 0.436791 0)
(0 0.43887 0)
(0 0.441009 0)
(0 0.443211 0)
(0 0.445478 0)
(0 0.447812 0)
(0 0.450213 0)
(0 0.452686 0)
(0 0.45523 0)
(0 0.45785 0)
(0 0.460546 0)
(0 0.463322 0)
(0 0.46618 0)
(0 0.469122 0)
(0 0.47215 0)
(0 0.475269 0)
(0 0.47848 0)
(0 0.481786 0)
(0 0.485191 0)
(0 0.488698 0)
(0 0.492311 0)
(0 0.496031 0)
(0 0.499865 0)
(0 0.503814 0)
(0 0.507885 0)
(0 0.512076 0)
(0 0.516406 0)
(0 0.520849 0)
(0 0.525468 0)
(0.00757114 0.530157 0)
(0.0151407 0.529995 0)
(0.0227073 0.529725 0)
(0.0302691 0.529347 0)
(0.0378249 0.528861 0)
(0.0453728 0.528266 0)
(0.0529116 0.527565 0)
(0.0604396 0.526755 0)
(0.0679552 0.525839 0)
(0.075457 0.524815 0)
(0.0829433 0.523684 0)
(0.0904128 0.522446 0)
(0.0978639 0.521102 0)
(0.105295 0.519651 0)
(0.112705 0.518094 0)
(0.120091 0.516432 0)
(0.127453 0.514665 0)
(0.134789 0.512792 0)
(0.142098 0.510815 0)
(0.149378 0.508734 0)
(0.156627 0.506549 0)
(0.163844 0.504261 0)
(0.171028 0.50187 0)
(0.178177 0.499377 0)
(0.18529 0.496781 0)
(0.192365 0.494085 0)
(0.1994 0.491288 0)
(0.206395 0.48839 0)
(0.213348 0.485393 0)
(0.220258 0.482297 0)
(0.227122 0.479103 0)
(0.23394 0.475811 0)
(0.240711 0.472422 0)
(0.247432 0.468936 0)
(0.254103 0.465355 0)
(0.260722 0.46168 0)
(0.267288 0.457909 0)
(0.2738 0.454046 0)
(0.280255 0.45009 0)
(0.286654 0.446042 0)
(0.292994 0.441904 0)
(0.299274 0.437675 0)
(0.305494 0.433357 0)
(0.31165 0.42895 0)
(0.317744 0.424456 0)
(0.323772 0.419876 0)
(0.329735 0.41521 0)
(0.33563 0.410459 0)
(0.341457 0.405624 0)
(0.347215 0.400707 0)
(0.352901 0.395708 0)
(0.358516 0.390629 0)
(0.364057 0.385469 0)
(0.369524 0.380231 0)
(0.374916 0.374916 0)
(0.380231 0.369524 0)
(0.385469 0.364057 0)
(0.390629 0.358516 0)
(0.395708 0.352901 0)
(0.400707 0.347215 0)
(0.405624 0.341457 0)
(0.410459 0.33563 0)
(0.41521 0.329735 0)
(0.419876 0.323772 0)
(0.424456 0.317744 0)
(0.42895 0.31165 0)
(0.433357 0.305494 0)
(0.437675 0.299274 0)
(0.441904 0.292994 0)
(0.446042 0.286654 0)
(0.45009 0.280255 0)
(0.454046 0.2738 0)
(0.457909 0.267288 0)
(0.46168 0.260722 0)
(0.465355 0.254103 0)
(0.468936 0.247432 0)
(0.472422 0.240711 0)
(0.475811 0.23394 0)
(0.479103 0.227122 0)
(0.482297 0.220258 0)
(0.485393 0.213348 0)
(0.48839 0.206395 0)
(0.491288 0.1994 0)
(0.494085 0.192365 0)
(0.496781 0.18529 0)
(0.499377 0.178177 0)
(0.50187 0.171028 0)
(0.504261 0.163844 0)
(0.506549 0.156627 0)
(0.508734 0.149378 0)
(0.510815 0.142098 0)
(0.512792 0.134789 0)
(0.514665 0.127453 0)
(0.516432 0.120091 0)
(0.518094 0.112705 0)
(0.519651 0.105295 0)
(0.521102 0.0978639 0)
(0.522446 0.0904128 0)
(0.523684 0.0829433 0)
(0.524815 0.075457 0)
(0.525839 0.0679552 0)
(0.526755 0.0604396 0)
(0.527565 0.0529116 0)
(0.528266 0.0453728 0)
(0.528861 0.0378249 0)
(0.529347 0.0302691 0)
(0.529725 0.0227073 0)
(0.529995 0.0151407 0)
(0.530157 0.00757114 0)
(0.525415 0.00750341 0)
(0.525254 0.0150053 0)
(0.524986 0.0225041 0)
(0.524611 0.0299984 0)
(0.524129 0.0374865 0)
(0.523541 0.0449669 0)
(0.522845 0.0524383 0)
(0.522043 0.0598989 0)
(0.521135 0.0673473 0)
(0.52012 0.0747819 0)
(0.518999 0.0822013 0)
(0.517772 0.089604 0)
(0.51644 0.0969884 0)
(0.515002 0.104353 0)
(0.51346 0.111696 0)
(0.511812 0.119017 0)
(0.510061 0.126313 0)
(0.508205 0.133584 0)
(0.506246 0.140827 0)
(0.504183 0.148042 0)
(0.502018 0.155226 0)
(0.49975 0.162379 0)
(0.49738 0.169498 0)
(0.494909 0.176583 0)
(0.492337 0.183632 0)
(0.489665 0.190644 0)
(0.486893 0.197617 0)
(0.484021 0.204549 0)
(0.481051 0.21144 0)
(0.477983 0.218287 0)
(0.474817 0.22509 0)
(0.471554 0.231848 0)
(0.468196 0.238558 0)
(0.464741 0.245219 0)
(0.461192 0.25183 0)
(0.457549 0.25839 0)
(0.453813 0.264897 0)
(0.449984 0.27135 0)
(0.446064 0.277748 0)
(0.442052 0.28409 0)
(0.43795 0.290373 0)
(0.433759 0.296597 0)
(0.42948 0.302761 0)
(0.425113 0.308862 0)
(0.420659 0.314901 0)
(0.416119 0.320876 0)
(0.411495 0.326785 0)
(0.406787 0.332628 0)
(0.401996 0.338403 0)
(0.397122 0.344109 0)
(0.392168 0.349744 0)
(0.387134 0.355308 0)
(0.382021 0.3608 0)
(0.37683 0.366219 0)
(0.371562 0.371562 0)
(0.366219 0.37683 0)
(0.3608 0.382021 0)
(0.355308 0.387134 0)
(0.349744 0.392168 0)
(0.344109 0.397122 0)
(0.338403 0.401996 0)
(0.332628 0.406787 0)
(0.326785 0.411495 0)
(0.320876 0.416119 0)
(0.314901 0.420659 0)
(0.308862 0.425113 0)
(0.302761 0.42948 0)
(0.296597 0.433759 0)
(0.290373 0.43795 0)
(0.28409 0.442052 0)
(0.277748 0.446064 0)
(0.27135 0.449984 0)
(0.264897 0.453813 0)
(0.25839 0.457549 0)
(0.25183 0.461192 0)
(0.245219 0.464741 0)
(0.238558 0.468196 0)
(0.231848 0.471554 0)
(0.22509 0.474817 0)
(0.218287 0.477983 0)
(0.21144 0.481051 0)
(0.204549 0.484021 0)
(0.197617 0.486893 0)
(0.190644 0.489665 0)
(0.183632 0.492337 0)
(0.176583 0.494909 0)
(0.169498 0.49738 0)
(0.162379 0.49975 0)
(0.155226 0.502018 0)
(0.148042 0.504183 0)
(0.140827 0.506246 0)
(0.133584 0.508205 0)
(0.126313 0.510061 0)
(0.119017 0.511812 0)
(0.111696 0.51346 0)
(0.104353 0.515002 0)
(0.0969884 0.51644 0)
(0.089604 0.517772 0)
(0.0822013 0.518999 0)
(0.0747819 0.52012 0)
(0.0673473 0.521135 0)
(0.0598989 0.522043 0)
(0.0524383 0.522845 0)
(0.0449669 0.523541 0)
(0.0374865 0.524129 0)
(0.0299984 0.524611 0)
(0.0225041 0.524986 0)
(0.0150053 0.525254 0)
(0.00750341 0.525415 0)
(0.520796 0.00743745 0)
(0.520636 0.0148734 0)
(0.520371 0.0223063 0)
(0.519999 0.0297346 0)
(0.519522 0.0371569 0)
(0.518938 0.0445716 0)
(0.518249 0.0519773 0)
(0.517454 0.0593723 0)
(0.516553 0.0667552 0)
(0.515547 0.0741245 0)
(0.514436 0.0814787 0)
(0.51322 0.0888163 0)
(0.5119 0.0961358 0)
(0.510475 0.103436 0)
(0.508946 0.110714 0)
(0.507313 0.117971 0)
(0.505577 0.125203 0)
(0.503737 0.132409 0)
(0.501795 0.139589 0)
(0.499751 0.14674 0)
(0.497605 0.153861 0)
(0.495357 0.160951 0)
(0.493008 0.168008 0)
(0.490559 0.175031 0)
(0.488009 0.182018 0)
(0.48536 0.188968 0)
(0.482612 0.195879 0)
(0.479766 0.202751 0)
(0.476822 0.209581 0)
(0.473781 0.216368 0)
(0.470643 0.223112 0)
(0.467409 0.22981 0)
(0.46408 0.23646 0)
(0.460656 0.243063 0)
(0.457138 0.249616 0)
(0.453527 0.256119 0)
(0.449824 0.262569 0)
(0.446028 0.268965 0)
(0.442142 0.275307 0)
(0.438166 0.281592 0)
(0.4341 0.28782 0)
(0.429946 0.29399 0)
(0.425704 0.300099 0)
(0.421376 0.306147 0)
(0.416961 0.312133 0)
(0.412461 0.318055 0)
(0.407878 0.323913 0)
(0.403211 0.329704 0)
(0.398462 0.335428 0)
(0.393631 0.341083 0)
(0.388721 0.34667 0)
(0.383731 0.352185 0)
(0.378663 0.357629 0)
(0.373517 0.362999 0)
(0.368296 0.368296 0)
(0.362999 0.373517 0)
(0.357629 0.378663 0)
(0.352185 0.383731 0)
(0.34667 0.388721 0)
(0.341083 0.393631 0)
(0.335428 0.398462 0)
(0.329704 0.403211 0)
(0.323913 0.407878 0)
(0.318055 0.412461 0)
(0.312133 0.416961 0)
(0.306147 0.421376 0)
(0.300099 0.425704 0)
(0.29399 0.429946 0)
(0.28782 0.4341 0)
(0.281592 0.438166 0)
(0.275307 0.442142 0)
(0.268965 0.446028 0)
(0.262569 0.449824 0)
(0.256119 0.453527 0)
(0.249616 0.457138 0)
(0.243063 0.460656 0)
(0.23646 0.46408 0)
(0.22981 0.467409 0)
(0.223112 0.470643 0)
(0.216368 0.473781 0)
(0.209581 0.476822 0)
(0.202751 0.479766 0)
(0.195879 0.482612 0)
(0.188968 0.48536 0)
(0.182018 0.488009 0)
(0.175031 0.490559 0)
(0.168008 0.493008 0)
(0.160951 0.495357 0)
(0.153861 0.497605 0)
(0.14674 0.499751 0)
(0.139589 0.501795 0)
(0.132409 0.503737 0)
(0.125203 0.505577 0)
(0.117971 0.507313 0)
(0.110714 0.508946 0)
(0.103436 0.510475 0)
(0.0961358 0.5119 0)
(0.0888163 0.51322 0)
(0.0814787 0.514436 0)
(0.0741245 0.515547 0)
(0.0667552 0.516553 0)
(0.0593723 0.517454 0)
(0.0519773 0.518249 0)
(0.0445716 0.518938 0)
(0.0371569 0.519522 0)
(0.0297346 0.519999 0)
(0.0223063 0.520371 0)
(0.0148734 0.520636 0)
(0.00743745 0.520796 0)
(0.516353 0.00737401 0)
(0.516195 0.0147465 0)
(0.515932 0.022116 0)
(0.515564 0.029481 0)
(0.51509 0.03684 0)
(0.514512 0.0441914 0)
(0.513828 0.0515339 0)
(0.51304 0.0588658 0)
(0.512147 0.0661858 0)
(0.51115 0.0734922 0)
(0.510048 0.0807837 0)
(0.508842 0.0880587 0)
(0.507533 0.0953157 0)
(0.50612 0.102553 0)
(0.504604 0.10977 0)
(0.502985 0.116964 0)
(0.501264 0.124135 0)
(0.49944 0.13128 0)
(0.497515 0.138398 0)
(0.495488 0.145488 0)
(0.49336 0.152549 0)
(0.491131 0.159578 0)
(0.488802 0.166575 0)
(0.486374 0.173538 0)
(0.483846 0.180465 0)
(0.48122 0.187356 0)
(0.478496 0.194208 0)
(0.475674 0.201021 0)
(0.472755 0.207793 0)
(0.469739 0.214523 0)
(0.466628 0.221208 0)
(0.463422 0.227849 0)
(0.460121 0.234443 0)
(0.456726 0.24099 0)
(0.453239 0.247487 0)
(0.449658 0.253934 0)
(0.445986 0.260329 0)
(0.442224 0.266671 0)
(0.438371 0.272958 0)
(0.434428 0.27919 0)
(0.430397 0.285365 0)
(0.426278 0.291482 0)
(0.422073 0.297539 0)
(0.417781 0.303536 0)
(0.413404 0.30947 0)
(0.408943 0.315342 0)
(0.404398 0.321149 0)
(0.399771 0.326891 0)
(0.395063 0.332567 0)
(0.390273 0.338174 0)
(0.385405 0.343712 0)
(0.380457 0.349181 0)
(0.375433 0.354578 0)
(0.370331 0.359903 0)
(0.365154 0.365154 0)
(0.359903 0.370331 0)
(0.354578 0.375433 0)
(0.349181 0.380457 0)
(0.343712 0.385405 0)
(0.338174 0.390273 0)
(0.332567 0.395063 0)
(0.326891 0.399771 0)
(0.321149 0.404398 0)
(0.315342 0.408943 0)
(0.30947 0.413404 0)
(0.303536 0.417781 0)
(0.297539 0.422073 0)
(0.291482 0.426278 0)
(0.285365 0.430397 0)
(0.27919 0.434428 0)
(0.272958 0.438371 0)
(0.266671 0.442224 0)
(0.260329 0.445986 0)
(0.253934 0.449658 0)
(0.247487 0.453239 0)
(0.24099 0.456726 0)
(0.234443 0.460121 0)
(0.227849 0.463422 0)
(0.221208 0.466628 0)
(0.214523 0.469739 0)
(0.207793 0.472755 0)
(0.201021 0.475674 0)
(0.194208 0.478496 0)
(0.187356 0.48122 0)
(0.180465 0.483846 0)
(0.173538 0.486374 0)
(0.166575 0.488802 0)
(0.159578 0.491131 0)
(0.152549 0.49336 0)
(0.145488 0.495488 0)
(0.138398 0.497515 0)
(0.13128 0.49944 0)
(0.124135 0.501264 0)
(0.116964 0.502985 0)
(0.10977 0.504604 0)
(0.102553 0.50612 0)
(0.0953157 0.507533 0)
(0.0880587 0.508842 0)
(0.0807837 0.510048 0)
(0.0734922 0.51115 0)
(0.0661858 0.512147 0)
(0.0588658 0.51304 0)
(0.0515339 0.513828 0)
(0.0441914 0.514512 0)
(0.03684 0.51509 0)
(0.029481 0.515564 0)
(0.022116 0.515932 0)
(0.0147465 0.516195 0)
(0.00737401 0.516353 0)
(0.512024 0.00731218 0)
(0.511867 0.0146229 0)
(0.511606 0.0219306 0)
(0.511241 0.0292338 0)
(0.510771 0.0365311 0)
(0.510197 0.0438209 0)
(0.50952 0.0511018 0)
(0.508738 0.0583722 0)
(0.507853 0.0656308 0)
(0.506864 0.072876 0)
(0.505771 0.0801063 0)
(0.504576 0.0873203 0)
(0.503278 0.0945165 0)
(0.501877 0.101693 0)
(0.500373 0.10885 0)
(0.498768 0.115984 0)
(0.497061 0.123094 0)
(0.495253 0.130179 0)
(0.493343 0.137238 0)
(0.491333 0.144268 0)
(0.489223 0.15127 0)
(0.487013 0.15824 0)
(0.484704 0.165178 0)
(0.482296 0.172083 0)
(0.479789 0.178952 0)
(0.477185 0.185785 0)
(0.474483 0.19258 0)
(0.471685 0.199336 0)
(0.468791 0.206051 0)
(0.465801 0.212724 0)
(0.462715 0.219354 0)
(0.459536 0.225939 0)
(0.456263 0.232478 0)
(0.452897 0.238969 0)
(0.449438 0.245412 0)
(0.445888 0.251805 0)
(0.442247 0.258146 0)
(0.438516 0.264435 0)
(0.434695 0.270669 0)
(0.430786 0.276849 0)
(0.426788 0.282972 0)
(0.422704 0.289038 0)
(0.418534 0.295044 0)
(0.414278 0.300991 0)
(0.409938 0.306876 0)
(0.405514 0.312698 0)
(0.401007 0.318457 0)
(0.396419 0.32415 0)
(0.39175 0.329778 0)
(0.387001 0.335338 0)
(0.382173 0.34083 0)
(0.377267 0.346253 0)
(0.372285 0.351605 0)
(0.367226 0.356885 0)
(0.362092 0.362092 0)
(0.356885 0.367226 0)
(0.351605 0.372285 0)
(0.346253 0.377267 0)
(0.34083 0.382173 0)
(0.335338 0.387001 0)
(0.329778 0.39175 0)
(0.32415 0.396419 0)
(0.318457 0.401007 0)
(0.312698 0.405514 0)
(0.306876 0.409938 0)
(0.300991 0.414278 0)
(0.295044 0.418534 0)
(0.289038 0.422704 0)
(0.282972 0.426788 0)
(0.276849 0.430786 0)
(0.270669 0.434695 0)
(0.264435 0.438516 0)
(0.258146 0.442247 0)
(0.251805 0.445888 0)
(0.245412 0.449438 0)
(0.238969 0.452897 0)
(0.232478 0.456263 0)
(0.225939 0.459536 0)
(0.219354 0.462715 0)
(0.212724 0.465801 0)
(0.206051 0.468791 0)
(0.199336 0.471685 0)
(0.19258 0.474483 0)
(0.185785 0.477185 0)
(0.178952 0.479789 0)
(0.172083 0.482296 0)
(0.165178 0.484704 0)
(0.15824 0.487013 0)
(0.15127 0.489223 0)
(0.144268 0.491333 0)
(0.137238 0.493343 0)
(0.130179 0.495253 0)
(0.123094 0.497061 0)
(0.115984 0.498768 0)
(0.10885 0.500373 0)
(0.101693 0.501877 0)
(0.0945165 0.503278 0)
(0.0873203 0.504576 0)
(0.0801063 0.505771 0)
(0.072876 0.506864 0)
(0.0656308 0.507853 0)
(0.0583722 0.508738 0)
(0.0511018 0.50952 0)
(0.0438209 0.510197 0)
(0.0365311 0.510771 0)
(0.0292338 0.511241 0)
(0.0219306 0.511606 0)
(0.0146229 0.511867 0)
(0.00731218 0.512024 0)
(0.507834 0.00725234 0)
(0.507678 0.0145032 0)
(0.507419 0.0217511 0)
(0.507057 0.0289946 0)
(0.506591 0.0362321 0)
(0.506022 0.0434623 0)
(0.50535 0.0506836 0)
(0.504575 0.0578946 0)
(0.503697 0.0650937 0)
(0.502716 0.0722796 0)
(0.501632 0.0794508 0)
(0.500447 0.0866057 0)
(0.499159 0.093743 0)
(0.49777 0.100861 0)
(0.496279 0.107959 0)
(0.494686 0.115034 0)
(0.492993 0.122087 0)
(0.4912 0.129114 0)
(0.489306 0.136115 0)
(0.487312 0.143088 0)
(0.485219 0.150032 0)
(0.483028 0.156945 0)
(0.480737 0.163827 0)
(0.478349 0.170675 0)
(0.475863 0.177488 0)
(0.47328 0.184265 0)
(0.470601 0.191004 0)
(0.467825 0.197705 0)
(0.464954 0.204365 0)
(0.461989 0.210983 0)
(0.458929 0.217559 0)
(0.455775 0.22409 0)
(0.452529 0.230575 0)
(0.449191 0.237013 0)
(0.44576 0.243404 0)
(0.442239 0.249744 0)
(0.438628 0.256033 0)
(0.434927 0.262271 0)
(0.431138 0.268454 0)
(0.42726 0.274584 0)
(0.423296 0.280657 0)
(0.419245 0.286672 0)
(0.415109 0.29263 0)
(0.410888 0.298528 0)
(0.406583 0.304364 0)
(0.402196 0.310139 0)
(0.397726 0.315851 0)
(0.393175 0.321498 0)
(0.388544 0.327079 0)
(0.383834 0.332594 0)
(0.379046 0.338041 0)
(0.37418 0.343419 0)
(0.369238 0.348727 0)
(0.364221 0.353964 0)
(0.359129 0.359129 0)
(0.353964 0.364221 0)
(0.348727 0.369238 0)
(0.343419 0.37418 0)
(0.338041 0.379046 0)
(0.332594 0.383834 0)
(0.327079 0.388544 0)
(0.321498 0.393175 0)
(0.315851 0.397726 0)
(0.310139 0.402196 0)
(0.304364 0.406583 0)
(0.298528 0.410888 0)
(0.29263 0.415109 0)
(0.286672 0.419245 0)
(0.280657 0.423296 0)
(0.274584 0.42726 0)
(0.268454 0.431138 0)
(0.262271 0.434927 0)
(0.256033 0.438628 0)
(0.249744 0.442239 0)
(0.243404 0.44576 0)
(0.237013 0.449191 0)
(0.230575 0.452529 0)
(0.22409 0.455775 0)
(0.217559 0.458929 0)
(0.210983 0.461989 0)
(0.204365 0.464954 0)
(0.197705 0.467825 0)
(0.191004 0.470601 0)
(0.184265 0.47328 0)
(0.177488 0.475863 0)
(0.170675 0.478349 0)
(0.163827 0.480737 0)
(0.156945 0.483028 0)
(0.150032 0.485219 0)
(0.143088 0.487312 0)
(0.136115 0.489306 0)
(0.129114 0.4912 0)
(0.122087 0.492993 0)
(0.115034 0.494686 0)
(0.107959 0.496279 0)
(0.100861 0.49777 0)
(0.093743 0.499159 0)
(0.0866057 0.500447 0)
(0.0794508 0.501632 0)
(0.0722796 0.502716 0)
(0.0650937 0.503697 0)
(0.0578946 0.504575 0)
(0.0506836 0.50535 0)
(0.0434623 0.506022 0)
(0.0362321 0.506591 0)
(0.0289946 0.507057 0)
(0.0217511 0.507419 0)
(0.0145032 0.507678 0)
(0.00725234 0.507834 0)
(0.503762 0.0071942 0)
(0.503608 0.0143869 0)
(0.503351 0.0215767 0)
(0.502992 0.0287621 0)
(0.50253 0.0359416 0)
(0.501965 0.0431138 0)
(0.501299 0.0502773 0)
(0.50053 0.0574304 0)
(0.499658 0.0645719 0)
(0.498685 0.0717001 0)
(0.497611 0.0788138 0)
(0.496435 0.0859114 0)
(0.495157 0.0929915 0)
(0.493779 0.100053 0)
(0.4923 0.107093 0)
(0.49072 0.114112 0)
(0.489041 0.121108 0)
(0.487262 0.128079 0)
(0.485383 0.135023 0)
(0.483406 0.141941 0)
(0.481329 0.148829 0)