/*--------------------------------*- C++ -*----------------------------------*\
| =========                 |                                                 |
| \\      /  F ield         | OpenFOAM: The Open Source CFD Toolbox           |
|  \\    /   O peration     | Version:  2312                                  |
|   \\  /    A nd           | Website:  www.openfoam.com                      |
|    \\/     M anipulation  |                                                 |
\*---------------------------------------------------------------------------*/
FoamFile
{
    version     2.0;
    format      ascii;
    arch        "LSB;label=32;scalar=64";
    class       volSymmTensorField;
    location    "20";
    object      sigma;
}
// * * * * * * * * * * * * * * * * * * * * * * * * * * * * * * * * * * * * * //

dimensions      [1 -1 -2 0 0 0 0];

internalField   nonuniform List<symmTensor> 
12870
(
(-1.95901e+07 -339451 1.84378e-12 2.79489e+07 -7.71981e-10 -1.28393e+06)
(-1.95707e+07 -1.01808e+06 -5.28854e-10 2.79295e+07 3.74746e-10 -1.28393e+06)
(-1.9532e+07 -1.69587e+06 7.59423e-10 2.78908e+07 7.99589e-10 -1.28393e+06)
(-1.94739e+07 -2.37228e+06 2.11153e-11 2.78327e+07 -3.85414e-10 -1.28393e+06)
(-1.93965e+07 -3.04676e+06 -2.87348e-10 2.77553e+07 3.68295e-10 -1.28393e+06)
(-1.92999e+07 -3.71875e+06 7.88708e-10 2.76587e+07 6.20726e-11 -1.28393e+06)
(-1.91841e+07 -4.38771e+06 -2.26196e-10 2.75429e+07 -4.08712e-10 -1.28393e+06)
(-1.90493e+07 -5.05309e+06 4.87404e-10 2.74081e+07 4.40613e-10 -1.28393e+06)
(-1.88955e+07 -5.71435e+06 -9.34721e-11 2.72543e+07 7.66295e-10 -1.28393e+06)
(-1.87229e+07 -6.37095e+06 4.70989e-10 2.70817e+07 4.53855e-10 -1.28393e+06)
(-1.85316e+07 -7.02235e+06 5.79776e-10 2.68905e+07 -3.02778e-10 -1.28393e+06)
(-1.83218e+07 -7.66802e+06 5.10164e-10 2.66807e+07 -1.48046e-09 -1.28393e+06)
(-1.80937e+07 -8.30744e+06 -1.03209e-09 2.64525e+07 -1.86209e-10 -1.28393e+06)
(-1.78474e+07 -8.94009e+06 -2.70831e-10 2.62062e+07 -5.28672e-11 -1.28393e+06)
(-1.75831e+07 -9.56544e+06 -4.30231e-10 2.59419e+07 -4.84791e-10 -1.28393e+06)
(-1.73011e+07 -1.0183e+07 -7.72954e-10 2.56599e+07 1.01298e-09 -1.28393e+06)
(-1.70015e+07 -1.07922e+07 -9.18903e-11 2.53604e+07 3.74894e-10 -1.28393e+06)
(-1.66847e+07 -1.13927e+07 2.56709e-10 2.50435e+07 6.5521e-11 -1.28393e+06)
(-1.63509e+07 -1.19838e+07 3.54764e-10 2.47097e+07 -3.03895e-10 -1.28393e+06)
(-1.60003e+07 -1.25652e+07 1.07862e-10 2.43591e+07 -3.70615e-10 -1.28393e+06)
(-1.56333e+07 -1.31363e+07 0 2.39921e+07 0 -1.28393e+06)
(-1.52501e+07 -1.36968e+07 -3.67454e-10 2.36089e+07 2.88423e-10 -1.28393e+06)
(-1.4851e+07 -1.4246e+07 -2.43789e-10 2.32098e+07 7.32469e-10 -1.28393e+06)
(-1.44364e+07 -1.47836e+07 3.72076e-10 2.27953e+07 -2.7902e-10 -1.28393e+06)
(-1.40067e+07 -1.53092e+07 1.91636e-11 2.23655e+07 -8.14763e-10 -1.28393e+06)
(-1.35621e+07 -1.58223e+07 2.23626e-10 2.19209e+07 9.11376e-10 -1.28393e+06)
(-1.3103e+07 -1.63224e+07 7.67369e-10 2.14619e+07 -5.25659e-10 -1.28393e+06)
(-1.26299e+07 -1.68093e+07 -1.83953e-10 2.09887e+07 -9.11775e-10 -1.28393e+06)
(-1.2143e+07 -1.72825e+07 -2.50035e-10 2.05019e+07 -1.07776e-10 -1.28393e+06)
(-1.16429e+07 -1.77415e+07 -1.03095e-09 2.00017e+07 3.83977e-10 -1.28393e+06)
(-1.11298e+07 -1.81861e+07 -1.77633e-10 1.94886e+07 1.62027e-09 -1.28393e+06)
(-1.06042e+07 -1.86158e+07 3.32353e-10 1.8963e+07 -6.96778e-10 -1.28393e+06)
(-1.00666e+07 -1.90304e+07 -5.92198e-11 1.84254e+07 -4.61288e-10 -1.28393e+06)
(-9.51734e+06 -1.94295e+07 -4.14511e-10 1.78762e+07 2.19851e-10 -1.28393e+06)
(-8.95692e+06 -1.98127e+07 4.14376e-10 1.73157e+07 -2.15645e-10 -1.28393e+06)
(-8.38579e+06 -2.01797e+07 -4.26168e-11 1.67446e+07 -4.65181e-10 -1.28393e+06)
(-7.80442e+06 -2.05303e+07 3.81214e-10 1.61632e+07 -6.71293e-10 -1.28393e+06)
(-7.21327e+06 -2.08641e+07 -5.86313e-11 1.55721e+07 -9.32417e-10 -1.28393e+06)
(-6.61282e+06 -2.1181e+07 -1.30382e-09 1.49716e+07 1.06414e-10 -1.28393e+06)
(-6.00358e+06 -2.14805e+07 -1.27322e-09 1.43624e+07 1.0215e-09 -1.28393e+06)
(-5.38603e+06 -2.17625e+07 4.37561e-10 1.37449e+07 2.85638e-10 -1.28393e+06)
(-4.76067e+06 -2.20268e+07 6.08532e-12 1.31195e+07 4.09758e-12 -1.28393e+06)
(-4.12803e+06 -2.22731e+07 -8.03597e-12 1.24869e+07 9.34224e-10 -1.28393e+06)
(-3.48861e+06 -2.25013e+07 4.46301e-10 1.18474e+07 -6.29899e-10 -1.28393e+06)
(-2.84294e+06 -2.27111e+07 -2.07318e-10 1.12018e+07 -1.52899e-10 -1.28393e+06)
(-2.19153e+06 -2.29023e+07 -4.80384e-11 1.05504e+07 9.33023e-10 -1.28393e+06)
(-1.53494e+06 -2.30749e+07 0 9.89376e+06 0 -1.28393e+06)
(-873677 -2.32287e+07 6.87826e-10 9.2325e+06 -4.37152e-10 -1.28393e+06)
(-208297 -2.33635e+07 9.85848e-10 8.56712e+06 -1.18823e-09 -1.28393e+06)
(460662 -2.34793e+07 -1.00235e-10 7.89816e+06 -1.10082e-09 -1.28393e+06)
(1.13265e+06 -2.35759e+07 -5.96949e-10 7.22617e+06 -5.24769e-10 -1.28393e+06)
(1.80713e+06 -2.36533e+07 -1.36219e-09 6.5517e+06 3.29139e-10 -1.28393e+06)
(2.48354e+06 -2.37114e+07 -3.375e-10 5.87528e+06 7.40538e-10 -1.28393e+06)
(3.16134e+06 -2.37501e+07 -3.7997e-10 5.19749e+06 -3.64031e-10 -1.28393e+06)
(3.83996e+06 -2.37695e+07 -7.30629e-10 4.51886e+06 3.63755e-10 -1.28393e+06)
(4.51886e+06 -2.37695e+07 1.015e-09 3.83996e+06 4.79793e-10 -1.28393e+06)
(5.19749e+06 -2.37501e+07 5.07525e-12 3.16134e+06 5.29746e-12 -1.28393e+06)
(5.87528e+06 -2.37114e+07 5.57505e-10 2.48354e+06 -5.34091e-10 -1.28393e+06)
(6.55169e+06 -2.36533e+07 -5.23395e-10 1.80713e+06 -5.78515e-10 -1.28393e+06)
(7.22617e+06 -2.35759e+07 -2.37215e-10 1.13265e+06 8.9939e-10 -1.28393e+06)
(7.89816e+06 -2.34793e+07 -4.59615e-10 460662 5.61912e-11 -1.28393e+06)
(8.56712e+06 -2.33635e+07 7.53914e-10 -208297 -3.00319e-10 -1.28393e+06)
(9.2325e+06 -2.32287e+07 -1.87819e-10 -873677 -8.48218e-10 -1.28393e+06)
(9.89376e+06 -2.30749e+07 -5.91016e-10 -1.53494e+06 1.1237e-09 -1.28393e+06)
(1.05504e+07 -2.29023e+07 1.62501e-10 -2.19153e+06 2.13876e-10 -1.28393e+06)
(1.12018e+07 -2.27111e+07 -2.17722e-12 -2.84293e+06 -2.95212e-12 -1.28393e+06)
(1.18474e+07 -2.25013e+07 4.69142e-10 -3.48861e+06 -7.70478e-12 -1.28393e+06)
(1.24869e+07 -2.22731e+07 1.64912e-10 -4.12803e+06 -4.3927e-10 -1.28393e+06)
(1.31195e+07 -2.20268e+07 9.59483e-10 -4.76067e+06 -6.48283e-10 -1.28393e+06)
(1.37449e+07 -2.17625e+07 -1.21971e-09 -5.38603e+06 -4.56206e-10 -1.28393e+06)
(1.43624e+07 -2.14805e+07 -5.16631e-10 -6.00358e+06 6.27311e-10 -1.28393e+06)
(1.49716e+07 -2.1181e+07 6.60133e-10 -6.61282e+06 -4.00228e-10 -1.28393e+06)
(1.55721e+07 -2.08641e+07 -3.91657e-10 -7.21327e+06 8.52771e-10 -1.28393e+06)
(1.61632e+07 -2.05303e+07 -3.37473e-10 -7.80442e+06 1.87426e-10 -1.28393e+06)
(1.67446e+07 -2.01797e+07 6.74887e-10 -8.38579e+06 -3.74796e-10 -1.28393e+06)
(1.73157e+07 -1.98127e+07 2.15645e-10 -8.95692e+06 -4.14376e-10 -1.28393e+06)
(1.78762e+07 -1.94295e+07 -1.21962e-10 -9.51734e+06 -2.35197e-10 -1.28393e+06)
(1.84254e+07 -1.90304e+07 -3.44339e-10 -1.00666e+07 1.74415e-10 -1.28393e+06)
(1.8963e+07 -1.86158e+07 3.43993e-10 -1.06042e+07 7.12448e-10 -1.28393e+06)
(1.94886e+07 -1.81861e+07 1.54759e-12 -1.11298e+07 3.3257e-12 -1.28393e+06)
(2.00017e+07 -1.77415e+07 8.0982e-10 -1.16429e+07 -8.05868e-11 -1.28393e+06)
(2.05019e+07 -1.72825e+07 -9.12857e-10 -1.2143e+07 -1.67547e-10 -1.28393e+06)
(2.09887e+07 -1.68093e+07 2.97144e-10 -1.26299e+07 7.17368e-10 -1.28393e+06)
(2.14619e+07 -1.63224e+07 7.87133e-10 -1.3103e+07 -1.15446e-09 -1.28393e+06)
(2.19209e+07 -1.58223e+07 -7.22663e-10 -1.35621e+07 2.71507e-10 -1.28393e+06)
(2.23655e+07 -1.53092e+07 -3.61976e-10 -1.40067e+07 1.34026e-10 -1.28393e+06)
(2.27953e+07 -1.47836e+07 -6.41665e-10 -1.44364e+07 5.04384e-10 -1.28393e+06)
(2.32098e+07 -1.4246e+07 1.17948e-09 -1.4851e+07 -1.23005e-10 -1.28393e+06)
(2.36089e+07 -1.36968e+07 4.43434e-12 -1.52501e+07 1.39865e-11 -1.28393e+06)
(2.39921e+07 -1.31363e+07 -6.65853e-10 -1.56333e+07 4.65904e-10 -1.28393e+06)
(2.43591e+07 -1.25652e+07 -7.08083e-11 -1.60003e+07 -2.47679e-10 -1.28393e+06)
(2.47097e+07 -1.19838e+07 1.36444e-10 -1.63509e+07 5.04412e-10 -1.28393e+06)
(2.50435e+07 -1.13927e+07 1.49599e-09 -1.66847e+07 -3.81829e-10 -1.28393e+06)
(2.53604e+07 -1.07922e+07 -8.71773e-10 -1.70015e+07 -3.24322e-10 -1.28393e+06)
(2.56599e+07 -1.0183e+07 -1.50789e-09 -1.73011e+07 3.31796e-10 -1.28393e+06)
(2.59419e+07 -9.56544e+06 9.72598e-10 -1.75831e+07 8.74822e-10 -1.28393e+06)
(2.62062e+07 -8.94009e+06 3.29132e-10 -1.78474e+07 -3.2858e-10 -1.28393e+06)
(2.64525e+07 -8.30744e+06 -7.59709e-10 -1.80937e+07 1.37067e-10 -1.28393e+06)
(2.66807e+07 -7.66802e+06 4.23207e-10 -1.83218e+07 1.92843e-10 -1.28393e+06)
(2.68905e+07 -7.02235e+06 1.48705e-09 -1.85316e+07 -4.92598e-10 -1.28393e+06)
(2.70817e+07 -6.37095e+06 -3.81201e-10 -1.87229e+07 6.12885e-11 -1.28393e+06)
(2.72543e+07 -5.71435e+06 -1.18219e-09 -1.88955e+07 -1.28243e-10 -1.28393e+06)
(2.74081e+07 -5.05309e+06 0 -1.90493e+07 0 -1.28393e+06)
(2.75429e+07 -4.38771e+06 3.84156e-10 -1.91841e+07 -3.7602e-11 -1.28393e+06)
(2.76587e+07 -3.71875e+06 1.15425e-09 -1.92999e+07 -9.2681e-11 -1.28393e+06)
(2.77553e+07 -3.04676e+06 -4.18628e-10 -1.93965e+07 -4.94845e-10 -1.28393e+06)
(2.78327e+07 -2.37228e+06 -7.58141e-10 -1.94739e+07 2.95847e-10 -1.28393e+06)
(2.78908e+07 -1.69587e+06 1.15716e-09 -1.9532e+07 -4.31633e-11 -1.28393e+06)
(2.79295e+07 -1.01808e+06 -1.11919e-11 -1.95707e+07 -5.2242e-10 -1.28393e+06)
(2.79489e+07 -339451 -7.71981e-10 -1.95901e+07 1.84378e-12 -1.28393e+06)
(-1.91404e+07 -331842 -2.62448e-10 2.73329e+07 -1.87391e-12 -1.24667e+06)
(-1.91215e+07 -995254 -5.07529e-10 2.7314e+07 -7.55888e-10 -1.24667e+06)
(-1.90836e+07 -1.65786e+06 -1.93578e-13 2.72761e+07 -6.91119e-15 -1.24667e+06)
(-1.90268e+07 -2.3191e+06 -5.75823e-11 2.72193e+07 1.11578e-09 -1.24667e+06)
(-1.89512e+07 -2.97846e+06 -4.80633e-10 2.71436e+07 -7.77313e-10 -1.24667e+06)
(-1.88567e+07 -3.63539e+06 2.64976e-10 2.70492e+07 2.0854e-11 -1.24667e+06)
(-1.87435e+07 -4.28935e+06 -8.1455e-12 2.6936e+07 -7.58237e-13 -1.24667e+06)
(-1.86117e+07 -4.93982e+06 5.72735e-12 2.68042e+07 6.15757e-13 -1.24667e+06)
(-1.84614e+07 -5.58625e+06 -3.57726e-10 2.66539e+07 7.0673e-10 -1.24667e+06)
(-1.82927e+07 -6.22813e+06 3.07366e-10 2.64852e+07 -3.33921e-10 -1.24667e+06)
(-1.81057e+07 -6.86493e+06 -4.78641e-12 2.62982e+07 -7.23101e-13 -1.24667e+06)
(-1.79006e+07 -7.49613e+06 6.56101e-10 2.60931e+07 8.63726e-10 -1.24667e+06)
(-1.76776e+07 -8.12122e+06 -6.42769e-10 2.58701e+07 6.40902e-10 -1.24667e+06)
(-1.74368e+07 -8.73968e+06 -1.15983e-10 2.56293e+07 -7.81543e-10 -1.24667e+06)
(-1.71784e+07 -9.35102e+06 -7.58892e-10 2.53709e+07 -1.59421e-10 -1.24667e+06)
(-1.69027e+07 -9.95472e+06 -8.22089e-11 2.50952e+07 3.63236e-10 -1.24667e+06)
(-1.66099e+07 -1.05503e+07 1.73881e-10 2.48024e+07 -7.24264e-10 -1.24667e+06)
(-1.63002e+07 -1.11373e+07 3.45772e-10 2.44927e+07 -2.96109e-10 -1.24667e+06)
(-1.59738e+07 -1.17152e+07 -2.55686e-10 2.41663e+07 -6.91635e-11 -1.24667e+06)
(-1.56311e+07 -1.22835e+07 -5.0469e-10 2.38236e+07 -1.44284e-10 -1.24667e+06)
(-1.52723e+07 -1.28419e+07 -1.0578e-10 2.34648e+07 3.57088e-10 -1.24667e+06)
(-1.48977e+07 -1.33897e+07 -6.12294e-10 2.30902e+07 1.96567e-10 -1.24667e+06)
(-1.45076e+07 -1.39266e+07 2.49024e-10 2.27001e+07 8.28831e-11 -1.24667e+06)
(-1.41023e+07 -1.44522e+07 2.4553e-10 2.22948e+07 8.56336e-11 -1.24667e+06)
(-1.36822e+07 -1.4966e+07 1.33699e-10 2.18747e+07 -1.14053e-09 -1.24667e+06)
(-1.32476e+07 -1.54676e+07 -1.08878e-10 2.14401e+07 -4.40053e-10 -1.24667e+06)
(-1.27988e+07 -1.59565e+07 -3.908e-11 2.09913e+07 7.86017e-10 -1.24667e+06)
(-1.23362e+07 -1.64325e+07 -1.10632e-09 2.05287e+07 -5.51466e-11 -1.24667e+06)
(-1.18603e+07 -1.6895e+07 -3.87836e-10 2.00528e+07 2.38372e-10 -1.24667e+06)
(-1.13713e+07 -1.73438e+07 1.57301e-10 1.95638e+07 -3.37617e-10 -1.24667e+06)
(-1.08698e+07 -1.77784e+07 3.19198e-10 1.90623e+07 5.59307e-10 -1.24667e+06)
(-1.0356e+07 -1.81985e+07 3.05991e-10 1.85485e+07 5.61303e-10 -1.24667e+06)
(-9.8304e+06 -1.86038e+07 5.32427e-12 1.80229e+07 2.66514e-12 -1.24667e+06)
(-9.29347e+06 -1.89939e+07 1.68884e-10 1.7486e+07 -3.31941e-10 -1.24667e+06)
(-8.74562e+06 -1.93685e+07 1.78682e-10 1.69381e+07 -3.26771e-10 -1.24667e+06)
(-8.18729e+06 -1.97274e+07 -9.73312e-13 1.63798e+07 -5.40525e-13 -1.24667e+06)
(-7.61895e+06 -2.00701e+07 1.86975e-10 1.58114e+07 -3.2209e-10 -1.24667e+06)
(-7.04105e+06 -2.03964e+07 -8.243e-10 1.52335e+07 3.77004e-10 -1.24667e+06)
(-6.45407e+06 -2.07062e+07 -8.31498e-10 1.46466e+07 3.64032e-10 -1.24667e+06)
(-5.85848e+06 -2.0999e+07 3.99314e-10 1.4051e+07 -6.28764e-10 -1.24667e+06)
(-5.25477e+06 -2.12747e+07 1.28515e-09 1.34473e+07 -5.05599e-11 -1.24667e+06)
(-4.64344e+06 -2.1533e+07 0 1.28359e+07 0 -1.24667e+06)
(-4.02497e+06 -2.17738e+07 5.29643e-12 1.22175e+07 9.10453e-10 -1.24667e+06)
(-3.39989e+06 -2.19969e+07 -2.21058e-10 1.15924e+07 2.99766e-10 -1.24667e+06)
(-2.76869e+06 -2.22019e+07 4.44048e-10 1.09612e+07 -5.98014e-10 -1.24667e+06)
(-2.13189e+06 -2.23889e+07 -4.33919e-10 1.03244e+07 1.38037e-10 -1.24667e+06)
(-1.49001e+06 -2.25577e+07 1.79685e-10 9.6825e+06 6.13519e-10 -1.24667e+06)
(-843571 -2.2708e+07 4.65482e-10 9.03606e+06 -5.81486e-10 -1.24667e+06)
(-193107 -2.28398e+07 -4.01252e-10 8.3856e+06 -3.32911e-10 -1.24667e+06)
(460856 -2.29529e+07 -2.37691e-10 7.73164e+06 2.8676e-10 -1.24667e+06)
(1.11778e+06 -2.30474e+07 -5.859e-10 7.07471e+06 -5.15056e-10 -1.24667e+06)
(1.77714e+06 -2.31231e+07 -3.29939e-10 6.41535e+06 -8.00725e-10 -1.24667e+06)
(2.43839e+06 -2.31798e+07 -4.43757e-10 5.7541e+06 9.5695e-11 -1.24667e+06)
(3.10099e+06 -2.32177e+07 -8.93371e-10 5.0915e+06 1.75616e-10 -1.24667e+06)
(3.7644e+06 -2.32367e+07 1.04251e-09 4.42809e+06 -1.06413e-09 -1.24667e+06)
(4.42809e+06 -2.32367e+07 8.99585e-10 3.7644e+06 -1.48448e-10 -1.24667e+06)
(5.0915e+06 -2.32177e+07 -1.80195e-09 3.10099e+06 2.72503e-10 -1.24667e+06)
(5.7541e+06 -2.31798e+07 -9.73442e-11 2.43839e+06 4.41985e-10 -1.24667e+06)
(6.41535e+06 -2.31231e+07 -1.4711e-10 1.77714e+06 -1.27282e-09 -1.24667e+06)
(7.07471e+06 -2.30474e+07 3.45703e-10 1.11778e+06 3.93254e-10 -1.24667e+06)
(7.73164e+06 -2.29529e+07 -9.05714e-10 460857 8.64338e-11 -1.24667e+06)
(8.3856e+06 -2.28398e+07 4.98949e-10 -193106 6.01375e-10 -1.24667e+06)
(9.03606e+06 -2.2708e+07 9.04761e-11 -843571 -1.07479e-09 -1.24667e+06)
(9.6825e+06 -2.25577e+07 4.53144e-10 -1.49001e+06 -2.52505e-11 -1.24667e+06)
(1.03244e+07 -2.23889e+07 -4.33624e-10 -2.13189e+06 6.60479e-10 -1.24667e+06)
(1.09612e+07 -2.22019e+07 6.18922e-10 -2.76869e+06 8.39206e-10 -1.24667e+06)
(1.15924e+07 -2.19969e+07 -1.50043e-10 -3.39989e+06 -2.09648e-10 -1.24667e+06)
(1.22175e+07 -2.17738e+07 -2.6503e-12 -4.02497e+06 -3.81716e-12 -1.24667e+06)
(1.28359e+07 -2.1533e+07 -2.89233e-10 -4.64344e+06 -4.2954e-10 -1.24667e+06)
(1.34473e+07 -2.12747e+07 -7.39861e-10 -5.25477e+06 -4.5207e-10 -1.24667e+06)
(1.4051e+07 -2.0999e+07 6.28168e-10 -5.85848e+06 -4.00255e-10 -1.24667e+06)
(1.46466e+07 -2.07062e+07 8.14571e-10 -6.45407e+06 -8.09056e-10 -1.24667e+06)
(1.52335e+07 -2.03964e+07 -9.05483e-10 -7.04105e+06 -6.6404e-11 -1.24667e+06)
(1.58114e+07 -2.00701e+07 -7.11935e-10 -7.61895e+06 1.00388e-09 -1.24667e+06)
(1.63798e+07 -1.97274e+07 4.53865e-10 -8.18729e+06 5.01796e-11 -1.24667e+06)
(1.69381e+07 -1.93685e+07 1.14476e-12 -8.74562e+06 2.13253e-12 -1.24667e+06)
(1.7486e+07 -1.89939e+07 3.30916e-10 -9.29347e+06 -1.70861e-10 -1.24667e+06)
(1.80229e+07 -1.86038e+07 9.98297e-10 -9.8304e+06 -5.01688e-10 -1.24667e+06)
(1.85485e+07 -1.81985e+07 1.14032e-10 -1.0356e+07 2.36173e-10 -1.24667e+06)
(1.90623e+07 -1.77784e+07 -4.5534e-10 -1.08698e+07 7.86951e-10 -1.24667e+06)
(1.95638e+07 -1.73438e+07 1.06331e-10 -1.13713e+07 2.37301e-10 -1.24667e+06)
(2.00528e+07 -1.6895e+07 -3.09752e-10 -1.18603e+07 -7.18608e-10 -1.24667e+06)
(2.05287e+07 -1.64325e+07 -2.45739e-10 -1.23362e+07 3.79921e-10 -1.24667e+06)
(2.09913e+07 -1.59565e+07 1.37709e-12 -1.27988e+07 3.46368e-12 -1.24667e+06)
(2.14401e+07 -1.54676e+07 3.48632e-10 -1.32476e+07 -1.30985e-10 -1.24667e+06)
(2.18747e+07 -1.4966e+07 -8.99605e-11 -1.36822e+07 -2.46556e-10 -1.24667e+06)
(2.22948e+07 -1.44522e+07 -3.51864e-10 -1.41023e+07 1.22028e-10 -1.24667e+06)
(2.27001e+07 -1.39266e+07 7.86615e-10 -1.45076e+07 4.80016e-12 -1.24667e+06)
(2.30902e+07 -1.33897e+07 3.20385e-12 -1.48977e+07 1.01054e-11 -1.24667e+06)
(2.34648e+07 -1.28419e+07 -9.96225e-10 -1.52723e+07 5.66313e-10 -1.24667e+06)
(2.38236e+07 -1.22835e+07 2.86114e-10 -1.56311e+07 -3.54086e-10 -1.24667e+06)
(2.41663e+07 -1.17152e+07 6.32825e-10 -1.59738e+07 9.13185e-10 -1.24667e+06)
(2.44927e+07 -1.11373e+07 -6.49068e-11 -1.63002e+07 -2.54302e-10 -1.24667e+06)
(2.48024e+07 -1.05503e+07 -8.44847e-10 -1.66099e+07 -3.28383e-10 -1.24667e+06)
(2.50952e+07 -9.95472e+06 7.81965e-10 -1.69027e+07 8.2189e-11 -1.24667e+06)
(2.53709e+07 -9.35102e+06 4.72932e-10 -1.71784e+07 4.39763e-10 -1.24667e+06)
(2.56293e+07 -8.73968e+06 -1.09712e-09 -1.74368e+07 2.11228e-10 -1.24667e+06)
(2.58701e+07 -8.12122e+06 0 -1.76776e+07 0 -1.24667e+06)
(2.60931e+07 -7.49613e+06 1.71231e-10 -1.79006e+07 1.03331e-09 -1.24667e+06)
(2.62982e+07 -6.86493e+06 1.1043e-09 -1.81057e+07 -1.69743e-10 -1.24667e+06)
(2.64852e+07 -6.22813e+06 -4.38319e-10 -1.82927e+07 -4.57465e-10 -1.24667e+06)
(2.66539e+07 -5.58625e+06 -1.07804e-09 -1.84614e+07 3.89438e-10 -1.24667e+06)
(2.68042e+07 -4.93982e+06 3.42422e-10 -1.86117e+07 -2.99004e-10 -1.24667e+06)
(2.6936e+07 -4.28935e+06 3.46329e-10 -1.87435e+07 -2.97603e-10 -1.24667e+06)
(2.70492e+07 -3.63539e+06 3.50821e-10 -1.88567e+07 -2.89104e-10 -1.24667e+06)
(2.71436e+07 -2.97846e+06 -3.33966e-11 -1.89512e+07 -5.18996e-10 -1.24667e+06)
(2.72193e+07 -2.3191e+06 1.29911e-11 -1.90268e+07 2.5971e-10 -1.24667e+06)
(2.72761e+07 -1.65786e+06 0 -1.90836e+07 0 -1.24667e+06)
(2.7314e+07 -995254 -1.1139e-11 -1.91215e+07 -5.1995e-10 -1.24667e+06)
(2.73329e+07 -331842 0 -1.91404e+07 0 -1.24667e+06)
(-1.85064e+07 -322887 3.21952e-12 2.67129e+07 -3.59285e-10 -1.22094e+06)
(-1.84879e+07 -968397 3.36329e-12 2.66945e+07 7.20507e-14 -1.22094e+06)
(-1.84511e+07 -1.61312e+06 -1.02303e-09 2.66576e+07 -3.65378e-11 -1.22094e+06)
(-1.83958e+07 -2.25652e+06 -5.25935e-10 2.66023e+07 3.3344e-10 -1.22094e+06)
(-1.83222e+07 -2.89809e+06 7.64525e-10 2.65287e+07 4.9196e-11 -1.22094e+06)
(-1.82303e+07 -3.53729e+06 -4.4769e-10 2.64368e+07 -7.56054e-10 -1.22094e+06)
(-1.81202e+07 -4.1736e+06 -2.58053e-10 2.63267e+07 -2.40215e-11 -1.22094e+06)
(-1.79919e+07 -4.80651e+06 -5.79547e-10 2.61984e+07 6.60431e-10 -1.22094e+06)
(-1.78456e+07 -5.4355e+06 2.08749e-10 2.60522e+07 3.87425e-10 -1.22094e+06)
(-1.76815e+07 -6.06006e+06 5.14594e-10 2.5888e+07 7.02411e-11 -1.22094e+06)
(-1.74995e+07 -6.67968e+06 1.57319e-10 2.57061e+07 -1.06636e-09 -1.22094e+06)
(-1.73e+07 -7.29384e+06 1.22825e-10 2.55065e+07 -7.08044e-10 -1.22094e+06)
(-1.7083e+07 -7.90206e+06 2.45727e-10 2.52895e+07 1.50473e-09 -1.22094e+06)
(-1.68487e+07 -8.50383e+06 -7.37899e-11 2.50552e+07 3.51676e-10 -1.22094e+06)
(-1.65973e+07 -9.09867e+06 1.50018e-10 2.48038e+07 -7.02768e-10 -1.22094e+06)
(-1.6329e+07 -9.68609e+06 4.99858e-10 2.45356e+07 1.12481e-10 -1.22094e+06)
(-1.60441e+07 -1.02656e+07 2.46465e-10 2.42506e+07 5.91711e-11 -1.22094e+06)
(-1.57428e+07 -1.08367e+07 -8.39676e-11 2.39493e+07 3.49386e-10 -1.22094e+06)
(-1.54252e+07 -1.1399e+07 -1.86375e-10 2.36317e+07 6.94009e-10 -1.22094e+06)
(-1.50917e+07 -1.19521e+07 1.18654e-09 2.32983e+07 -4.08171e-10 -1.22094e+06)
(-1.47426e+07 -1.24953e+07 6.44189e-12 2.29491e+07 1.94158e-12 -1.22094e+06)
(-1.43781e+07 -1.30284e+07 2.40636e-10 2.25846e+07 7.62923e-11 -1.22094e+06)
(-1.39985e+07 -1.35508e+07 8.47106e-10 2.2205e+07 -9.67334e-11 -1.22094e+06)
(-1.36042e+07 -1.40622e+07 1.22595e-10 2.18107e+07 4.23282e-10 -1.22094e+06)
(-1.31954e+07 -1.45621e+07 -2.41274e-10 2.14019e+07 -8.80334e-11 -1.22094e+06)
(-1.27725e+07 -1.50502e+07 -4.73436e-10 2.0979e+07 -1.80443e-10 -1.22094e+06)
(-1.23358e+07 -1.55259e+07 -1.2901e-10 2.05424e+07 3.35363e-10 -1.22094e+06)
(-1.18858e+07 -1.5989e+07 1.20875e-12 2.00923e+07 5.00681e-13 -1.22094e+06)
(-1.14227e+07 -1.64391e+07 8.01661e-10 1.96292e+07 -1.21947e-09 -1.22094e+06)
(-1.09469e+07 -1.68758e+07 3.82579e-10 1.91534e+07 -2.22293e-10 -1.22094e+06)
(-1.04589e+07 -1.72987e+07 -3.06226e-10 1.86654e+07 6.50092e-10 -1.22094e+06)
(-9.95895e+06 -1.77074e+07 -4.20762e-12 1.81655e+07 -2.03158e-12 -1.22094e+06)
(-9.44756e+06 -1.81018e+07 6.8253e-11 1.76541e+07 4.35964e-10 -1.22094e+06)
(-8.92512e+06 -1.84814e+07 -1.68967e-10 1.71316e+07 3.17115e-10 -1.22094e+06)
(-8.39205e+06 -1.88459e+07 -2.82066e-10 1.65986e+07 -5.5921e-10 -1.22094e+06)
(-7.84879e+06 -1.9195e+07 3.98401e-10 1.60553e+07 -1.89736e-10 -1.22094e+06)
(-7.29578e+06 -1.95285e+07 0 1.55023e+07 0 -1.22094e+06)
(-6.73348e+06 -1.9846e+07 4.4176e-10 1.494e+07 2.62108e-10 -1.22094e+06)
(-6.16234e+06 -2.01474e+07 4.33988e-10 1.43689e+07 2.65948e-10 -1.22094e+06)
(-5.58282e+06 -2.04323e+07 3.77386e-10 1.37894e+07 -6.11578e-10 -1.22094e+06)
(-4.9954e+06 -2.07006e+07 4.3185e-10 1.32019e+07 2.81911e-10 -1.22094e+06)
(-4.40057e+06 -2.0952e+07 -4.04153e-10 1.26071e+07 5.94184e-10 -1.22094e+06)
(-3.79879e+06 -2.11862e+07 -4.07069e-10 1.20053e+07 5.9219e-10 -1.22094e+06)
(-3.19058e+06 -2.14033e+07 4.12238e-10 1.13971e+07 2.95034e-10 -1.22094e+06)
(-2.57641e+06 -2.16028e+07 -4.15071e-10 1.07829e+07 1.40327e-10 -1.22094e+06)
(-1.95679e+06 -2.17847e+07 -2.45527e-12 1.01633e+07 -1.86549e-12 -1.22094e+06)
(-1.33224e+06 -2.19489e+07 6.28898e-10 9.53877e+06 3.59127e-11 -1.22094e+06)
(-703245 -2.20952e+07 -6.51679e-10 8.90978e+06 3.97731e-10 -1.22094e+06)
(-70334.2 -2.22234e+07 9.16101e-10 8.27687e+06 -1.10738e-09 -1.22094e+06)
(565981 -2.23335e+07 4.16726e-11 7.64055e+06 -4.36918e-10 -1.22094e+06)
(1.20518e+06 -2.24254e+07 -5.22565e-10 7.00135e+06 9.75799e-10 -1.22094e+06)
(1.84675e+06 -2.24991e+07 -4.9351e-11 6.35979e+06 4.39875e-10 -1.22094e+06)
(2.49015e+06 -2.25543e+07 -2.42644e-10 5.71638e+06 2.65007e-10 -1.22094e+06)
(3.13487e+06 -2.25912e+07 2.47348e-10 5.07166e+06 -2.6061e-10 -1.22094e+06)
(3.78038e+06 -2.26096e+07 8.68621e-10 4.42615e+06 -1.52767e-10 -1.22094e+06)
(4.42615e+06 -2.26096e+07 -1.11904e-09 3.78038e+06 4.00243e-10 -1.22094e+06)
(5.07166e+06 -2.25912e+07 -2.61127e-10 3.13487e+06 2.46809e-10 -1.22094e+06)
(5.71638e+06 -2.25543e+07 8.78951e-10 2.49015e+06 -1.10502e-10 -1.22094e+06)
(6.35979e+06 -2.24991e+07 9.23117e-11 1.84675e+06 -4.33517e-10 -1.22094e+06)
(7.00135e+06 -2.24254e+07 4.44218e-12 1.20518e+06 5.05318e-12 -1.22094e+06)
(7.64055e+06 -2.23335e+07 1.63947e-10 565981 1.91958e-10 -1.22094e+06)
(8.27687e+06 -2.22234e+07 2.76756e-10 -70334 -2.29133e-10 -1.22094e+06)
(8.90978e+06 -2.20952e+07 -1.19666e-10 -703245 4.2412e-10 -1.22094e+06)
(9.53877e+06 -2.19489e+07 2.83359e-10 -1.33224e+06 -2.20916e-10 -1.22094e+06)
(1.01633e+07 -2.17847e+07 8.57249e-10 -1.95679e+06 -6.53443e-10 -1.22094e+06)
(1.07829e+07 -2.16028e+07 -2.72999e-10 -2.57641e+06 8.40521e-10 -1.22094e+06)
(1.13971e+07 -2.14033e+07 -8.78714e-10 -3.19058e+06 6.2429e-10 -1.22094e+06)
(1.20053e+07 -2.11862e+07 2.93541e-10 -3.79879e+06 4.2278e-10 -1.22094e+06)
(1.26071e+07 -2.0952e+07 -2.86169e-10 -4.40057e+06 -4.2499e-10 -1.22094e+06)
(1.32019e+07 -2.07006e+07 2.81349e-10 -4.9954e+06 4.3099e-10 -1.22094e+06)
(1.37894e+07 -2.04323e+07 1.36759e-10 -5.58282e+06 2.16179e-10 -1.22094e+06)
(1.43689e+07 -2.01474e+07 -2.65411e-10 -6.16234e+06 -4.33112e-10 -1.22094e+06)
(1.494e+07 -1.9846e+07 4.90876e-11 -6.73348e+06 -6.21402e-10 -1.22094e+06)
(1.55023e+07 -1.95285e+07 8.78299e-10 -7.29578e+06 8.6506e-11 -1.22094e+06)
(1.60553e+07 -1.9195e+07 1.23559e-10 -7.84879e+06 2.2249e-10 -1.22094e+06)
(1.65986e+07 -1.88459e+07 -1.22579e-10 -8.39205e+06 -2.28348e-10 -1.22094e+06)
(1.71316e+07 -1.84814e+07 1.17155e-10 -8.92512e+06 2.25927e-10 -1.22094e+06)
(1.76541e+07 -1.81018e+07 -2.29926e-10 -9.44756e+06 -4.59333e-10 -1.22094e+06)
(1.81655e+07 -1.77074e+07 4.24342e-10 -9.95895e+06 -7.73839e-10 -1.22094e+06)
(1.86654e+07 -1.72987e+07 8.67295e-13 -1.04589e+07 1.8638e-12 -1.22094e+06)
(1.91534e+07 -1.68758e+07 -9.84349e-10 -1.09469e+07 4.39228e-10 -1.22094e+06)
(1.96292e+07 -1.64391e+07 -6.58979e-10 -1.14227e+07 2.86593e-10 -1.22094e+06)
(2.00923e+07 -1.5989e+07 9.94416e-10 -1.18858e+07 -4.15946e-10 -1.22094e+06)
(2.05424e+07 -1.55259e+07 7.63784e-10 -1.23358e+07 -2.39601e-11 -1.22094e+06)
(2.0979e+07 -1.50502e+07 -1.00782e-09 -1.27725e+07 3.82316e-10 -1.22094e+06)
(2.14019e+07 -1.45621e+07 -5.13376e-10 -1.31954e+07 -3.58778e-10 -1.22094e+06)
(2.18107e+07 -1.40622e+07 -1.68389e-10 -1.36042e+07 -4.82807e-10 -1.22094e+06)
(2.2205e+07 -1.35508e+07 1.10225e-09 -1.39985e+07 -1.01498e-10 -1.22094e+06)
(2.25846e+07 -1.30284e+07 -1.52189e-10 -1.43781e+07 -4.80026e-10 -1.22094e+06)
(2.29491e+07 -1.24953e+07 -9.5938e-10 -1.47426e+07 5.5213e-10 -1.22094e+06)
(2.32983e+07 -1.19521e+07 1.10559e-09 -1.50917e+07 -5.41987e-11 -1.22094e+06)
(2.36317e+07 -1.1399e+07 1.4152e-12 -1.54252e+07 5.23175e-12 -1.22094e+06)
(2.39493e+07 -1.08367e+07 -8.24395e-10 -1.57428e+07 -3.24251e-10 -1.22094e+06)
(2.42506e+07 -1.02656e+07 7.85328e-13 -1.60441e+07 3.27111e-12 -1.22094e+06)
(2.45356e+07 -9.68609e+06 1.11517e-10 -1.6329e+07 4.95573e-10 -1.22094e+06)
(2.48038e+07 -9.09867e+06 2.4733e-10 -1.65973e+07 -5.70341e-10 -1.22094e+06)
(2.50552e+07 -8.50383e+06 -4.01974e-10 -1.68487e+07 -1.8388e-10 -1.22094e+06)
(2.52895e+07 -7.90206e+06 7.51587e-10 -1.7083e+07 1.18541e-10 -1.22094e+06)
(2.55065e+07 -7.29384e+06 3.96682e-10 -1.73e+07 1.96021e-10 -1.22094e+06)
(2.57061e+07 -6.67968e+06 -6.73022e-10 -1.74995e+07 3.55658e-10 -1.22094e+06)
(2.5888e+07 -6.06006e+06 -6.88382e-11 -1.76815e+07 -5.04317e-10 -1.22094e+06)
(2.60522e+07 -5.4355e+06 -6.51274e-10 -1.78456e+07 5.95597e-10 -1.22094e+06)
(2.61984e+07 -4.80651e+06 -6.87136e-10 -1.79919e+07 3.31154e-10 -1.22094e+06)
(2.63267e+07 -4.1736e+06 3.81618e-10 -1.81202e+07 2.23076e-10 -1.22094e+06)
(2.64368e+07 -3.53729e+06 6.76264e-10 -1.82303e+07 -5.66134e-10 -1.22094e+06)
(2.65287e+07 -2.89809e+06 3.58665e-10 -1.83222e+07 -2.13941e-11 -1.22094e+06)
(2.66023e+07 -2.25652e+06 -2.56623e-11 -1.83958e+07 -5.13024e-10 -1.22094e+06)
(2.66576e+07 -1.61312e+06 0 -1.84511e+07 0 -1.22094e+06)
(2.66945e+07 -968397 0 -1.84879e+07 0 -1.22094e+06)
(2.67129e+07 -322887 0 -1.85064e+07 0 -1.22094e+06)
(-1.80013e+07 -315122 -2.55272e-10 2.61306e+07 -1.82267e-12 -1.19179e+06)
(-1.79833e+07 -945109 -1.16375e-11 2.61126e+07 6.93798e-10 -1.19179e+06)
(-1.79473e+07 -1.57432e+06 2.27126e-10 2.60766e+07 7.02443e-10 -1.19179e+06)
(-1.78933e+07 -2.20226e+06 6.7425e-11 2.60227e+07 -1.38614e-09 -1.19179e+06)
(-1.78215e+07 -2.82839e+06 5.50122e-10 2.59508e+07 -6.59924e-10 -1.19179e+06)
(-1.77318e+07 -3.45222e+06 -6.13339e-10 2.58611e+07 1.3438e-09 -1.19179e+06)
(-1.76243e+07 -4.07323e+06 -1.9012e-12 2.57537e+07 -1.76978e-13 -1.19179e+06)
(-1.74992e+07 -4.69093e+06 5.80496e-10 2.56285e+07 -6.35477e-10 -1.19179e+06)
(-1.73564e+07 -5.30479e+06 7.63085e-11 2.54858e+07 -6.89723e-10 -1.19179e+06)
(-1.71962e+07 -5.91433e+06 2.50326e-10 2.53255e+07 3.4169e-11 -1.19179e+06)
(-1.70186e+07 -6.51904e+06 8.89345e-10 2.5148e+07 8.36119e-10 -1.19179e+06)
(-1.68239e+07 -7.11844e+06 -4.94728e-10 2.49532e+07 -8.19823e-11 -1.19179e+06)
(-1.66121e+07 -7.71203e+06 -1.20028e-10 2.47414e+07 6.83436e-10 -1.19179e+06)
(-1.63834e+07 -8.29933e+06 -6.3308e-12 2.45128e+07 -1.23579e-12 -1.19179e+06)
(-1.61381e+07 -8.87987e+06 -1.04017e-10 2.42674e+07 -7.30885e-10 -1.19179e+06)
(-1.58763e+07 -9.45316e+06 0 2.40056e+07 0 -1.19179e+06)
(-1.55982e+07 -1.00187e+07 -2.48225e-10 2.37275e+07 -5.95935e-11 -1.19179e+06)
(-1.53041e+07 -1.05761e+07 0 2.34334e+07 0 -1.19179e+06)
(-1.49942e+07 -1.11249e+07 8.40223e-10 2.31235e+07 -1.21037e-09 -1.19179e+06)
(-1.46687e+07 -1.16646e+07 4.8583e-10 2.27981e+07 1.38892e-10 -1.19179e+06)
(-1.4328e+07 -1.21948e+07 -8.91143e-10 2.24573e+07 1.18085e-09 -1.19179e+06)
(-1.39723e+07 -1.27151e+07 2.02303e-10 2.21016e+07 -6.63788e-10 -1.19179e+06)
(-1.36018e+07 -1.3225e+07 -4.78309e-10 2.17311e+07 -1.59197e-10 -1.19179e+06)
(-1.3217e+07 -1.3724e+07 -6.98056e-10 2.13463e+07 1.2263e-09 -1.19179e+06)
(-1.2818e+07 -1.42119e+07 2.33754e-10 2.09473e+07 8.52896e-11 -1.19179e+06)
(-1.24053e+07 -1.46883e+07 4.84435e-10 2.05346e+07 -5.57943e-10 -1.19179e+06)
(-1.19791e+07 -1.51526e+07 2.32998e-10 2.01085e+07 9.26354e-11 -1.19179e+06)
(-1.15399e+07 -1.56045e+07 4.63302e-10 1.96692e+07 1.91906e-10 -1.19179e+06)
(-1.10879e+07 -1.60438e+07 -2.34427e-10 1.92172e+07 -1.01049e-10 -1.19179e+06)
(-1.06236e+07 -1.64699e+07 4.14388e-12 1.87529e+07 1.85681e-12 -1.19179e+06)
(-1.01473e+07 -1.68827e+07 -2.89827e-10 1.82766e+07 6.3047e-10 -1.19179e+06)
(-9.65939e+06 -1.72816e+07 -1.71948e-12 1.77887e+07 -8.30219e-13 -1.19179e+06)
(-9.1603e+06 -1.76665e+07 5.76801e-12 1.72896e+07 2.88725e-12 -1.19179e+06)
(-8.65042e+06 -1.80369e+07 -5.44878e-10 1.67797e+07 4.99085e-10 -1.19179e+06)
(-8.13017e+06 -1.83927e+07 5.50267e-10 1.62595e+07 -4.92157e-10 -1.19179e+06)
(-7.59997e+06 -1.87334e+07 3.39705e-10 1.57293e+07 -6.05056e-10 -1.19179e+06)
(-7.06027e+06 -1.90589e+07 3.42716e-10 1.51896e+07 -6.03355e-10 -1.19179e+06)
(-6.51148e+06 -1.93688e+07 1.64213e-12 1.46408e+07 9.74315e-13 -1.19179e+06)
(-5.95407e+06 -1.96629e+07 -1.15656e-09 1.40834e+07 9.18882e-10 -1.19179e+06)
(-5.38849e+06 -1.9941e+07 3.66628e-10 1.35178e+07 -5.89145e-10 -1.19179e+06)
(-4.8152e+06 -2.02028e+07 -3.63186e-11 1.29445e+07 -8.52359e-10 -1.19179e+06)
(-4.23467e+06 -2.04481e+07 -3.90236e-10 1.2364e+07 5.73766e-10 -1.19179e+06)
(-3.64737e+06 -2.06768e+07 0 1.17767e+07 0 -1.19179e+06)
(-3.05378e+06 -2.08886e+07 6.57956e-12 1.11831e+07 8.57998e-10 -1.19179e+06)
(-2.45438e+06 -2.10833e+07 -1.5367e-12 1.05837e+07 -1.13333e-12 -1.19179e+06)
(-1.84967e+06 -2.12609e+07 1.42421e-09 9.97899e+06 2.10648e-10 -1.19179e+06)
(-1.24013e+06 -2.14211e+07 -4.25094e-10 9.36945e+06 5.4844e-10 -1.19179e+06)
(-626264 -2.15638e+07 3.88982e-10 8.75559e+06 3.13462e-10 -1.19179e+06)
(-8572.63 -2.1689e+07 3.909e-10 8.1379e+06 3.24322e-10 -1.19179e+06)
(612441 -2.17965e+07 -3.82776e-10 7.51688e+06 -3.26922e-10 -1.19179e+06)
(1.23627e+06 -2.18862e+07 6.48873e-10 6.89305e+06 -3.53472e-10 -1.19179e+06)