/*--------------------------------*- C++ -*----------------------------------*\
| =========                 |                                                 |
| \\      /  F ield         | OpenFOAM: The Open Source CFD Toolbox           |
|  \\    /   O peration     | Version:  2312                                  |
|   \\  /    A nd           | Website:  www.openfoam.com                      |
|    \\/     M anipulation  |                                                 |
\*---------------------------------------------------------------------------*/
FoamFile
{
    version     2.0;
    format      ascii;
    arch        "LSB;label=32;scalar=64";
    class       volSymmTensorField;
    location    "20";
    object      sigma:Transformed;
}
// * * * * * * * * * * * * * * * * * * * * * * * * * * * * * * * * * * * * * //

dimensions      [1 -1 -2 0 0 0 0];

internalField   nonuniform List<symmTensor> 
12870
(
(-1.95925e+07 -0.0231706 -3.66815e-12 2.79514e+07 -7.71974e-10 -1.28393e+06)
(-1.95925e+07 0.0424621 -5.20706e-10 2.79514e+07 3.85987e-10 -1.28393e+06)
(-1.95925e+07 -0.030284 7.87478e-10 2.79514e+07 7.71974e-10 -1.28393e+06)
(-1.95925e+07 0.0497687 1.83407e-12 2.79514e+07 -3.85987e-10 -1.28393e+06)
(-1.95925e+07 -0.101311 -2.63104e-10 2.79514e+07 3.85987e-10 -1.28393e+06)
(-1.95925e+07 0.0511981 7.91147e-10 2.79514e+07 -1.9331e-18 -1.28393e+06)
(-1.95925e+07 -0.0231679 -2.63104e-10 2.79514e+07 -3.85987e-10 -1.28393e+06)
(-1.95925e+07 0.0700389 5.31711e-10 2.79514e+07 3.85987e-10 -1.28393e+06)
(-1.95925e+07 0.0152992 -2.49379e-18 2.79514e+07 7.71974e-10 -1.28393e+06)
(-1.95925e+07 0.0150896 5.28042e-10 2.79514e+07 3.85987e-10 -1.28393e+06)
(-1.95925e+07 -0.0304258 5.28042e-10 2.79514e+07 -3.85987e-10 -1.28393e+06)
(-1.95925e+07 0.0475533 2.6127e-10 2.79514e+07 -1.54395e-09 -1.28393e+06)
(-1.95925e+07 -0.121965 -1.04875e-09 2.79514e+07 8.6779e-19 -1.28393e+06)
(-1.95925e+07 0.107918 -2.75943e-10 2.79514e+07 1.00921e-17 -1.28393e+06)
(-1.95925e+07 -0.0809223 -5.20706e-10 2.79514e+07 -3.85987e-10 -1.28393e+06)
(-1.95925e+07 0.0307908 -5.31711e-10 2.79514e+07 1.15796e-09 -1.28393e+06)
(-1.95925e+07 -0.0573026 -1.83407e-12 2.79514e+07 3.85987e-10 -1.28393e+06)
(-1.95925e+07 -0.0149695 2.64938e-10 2.79514e+07 6.27896e-19 -1.28393e+06)
(-1.95925e+07 0.00354505 2.63104e-10 2.79514e+07 -3.85987e-10 -1.28393e+06)
(-1.95925e+07 0.00062508 1.83408e-12 2.79514e+07 -3.85987e-10 -1.28393e+06)
(-1.95925e+07 0.0517496 0 2.79514e+07 0 -1.28393e+06)
(-1.95925e+07 -0.0735142 -2.63104e-10 2.79514e+07 3.85987e-10 -1.28393e+06)
(-1.95925e+07 0.0955446 -1.35609e-18 2.79514e+07 7.71974e-10 -1.28393e+06)
(-1.95925e+07 -0.107115 2.59436e-10 2.79514e+07 -3.85987e-10 -1.28393e+06)
(-1.95925e+07 0.0736049 -2.6127e-10 2.79514e+07 -7.71974e-10 -1.28393e+06)
(-1.95925e+07 -0.103813 5.33545e-10 2.79514e+07 7.71974e-10 -1.28393e+06)
(-1.95925e+07 0.0234875 5.18872e-10 2.79514e+07 -7.71974e-10 -1.28393e+06)
(-1.95925e+07 -0.0297416 -5.18872e-10 2.79514e+07 -7.71974e-10 -1.28393e+06)
(-1.95925e+07 0.0509077 -2.72275e-10 2.79514e+07 1.08272e-17 -1.28393e+06)
(-1.95925e+07 -0.0718789 -7.8381e-10 2.79514e+07 7.71974e-10 -1.28393e+06)
(-1.95925e+07 0.120878 5.2254e-10 2.79514e+07 1.54395e-09 -1.28393e+06)
(-1.95925e+07 -0.0731553 -3.66815e-12 2.79514e+07 -7.71974e-10 -1.28393e+06)
(-1.95925e+07 0.0480633 -2.59436e-10 2.79514e+07 -3.85987e-10 -1.28393e+06)
(-1.95925e+07 -0.0336328 -2.66772e-10 2.79514e+07 3.85987e-10 -1.28393e+06)
(-1.95925e+07 0.0231913 2.63104e-10 2.79514e+07 -3.85987e-10 -1.28393e+06)
(-1.95925e+07 -0.0464786 -2.63104e-10 2.79514e+07 -3.85987e-10 -1.28393e+06)
(-1.95925e+07 0.0145049 -3.66815e-12 2.79514e+07 -7.71974e-10 -1.28393e+06)
(-1.95925e+07 -0.032537 -5.26208e-10 2.79514e+07 -7.71974e-10 -1.28393e+06)
(-1.95925e+07 0.0013692 -1.05608e-09 2.79514e+07 7.71974e-10 -1.28393e+06)
(-1.95925e+07 0.0442627 -5.29876e-10 2.79514e+07 1.54395e-09 -1.28393e+06)
(-1.95925e+07 -0.0662585 5.2254e-10 2.79514e+07 -2.64163e-18 -1.28393e+06)
(-1.95925e+07 0.0091164 7.33629e-12 2.79514e+07 -1.47743e-18 -1.28393e+06)
(-1.95925e+07 0.0556887 5.26208e-10 2.79514e+07 7.71974e-10 -1.28393e+06)
(-1.95925e+07 -0.0137583 -3.66815e-12 2.79514e+07 -7.71974e-10 -1.28393e+06)
(-1.95925e+07 -0.00366204 -2.57602e-10 2.79514e+07 8.42905e-18 -1.28393e+06)
(-1.95925e+07 -0.0086965 5.26208e-10 2.79514e+07 7.71974e-10 -1.28393e+06)
(-1.95925e+07 0.0735478 0 2.79514e+07 0 -1.28393e+06)
(-1.95925e+07 -0.0661974 2.6127e-10 2.79514e+07 -7.71974e-10 -1.28393e+06)
(-1.95925e+07 0.0388457 -5.08763e-18 2.79514e+07 -1.54395e-09 -1.28393e+06)
(-1.95925e+07 -0.0671334 -7.91147e-10 2.79514e+07 -7.71974e-10 -1.28393e+06)
(-1.95925e+07 0.0608468 -7.94815e-10 2.79514e+07 1.51101e-17 -1.28393e+06)
(-1.95925e+07 -0.0162515 -7.89313e-10 2.79514e+07 1.15796e-09 -1.28393e+06)
(-1.95925e+07 0.00543359 2.57602e-10 2.79514e+07 7.71974e-10 -1.28393e+06)
(-1.95925e+07 0.0571603 -5.26208e-10 2.79514e+07 5.47835e-18 -1.28393e+06)
(-1.95925e+07 -0.0882211 -2.64938e-10 2.79514e+07 7.71974e-10 -1.28393e+06)
(-1.95925e+07 0.112866 1.05425e-09 2.79514e+07 -3.85987e-10 -1.28393e+06)
(-1.95925e+07 -0.0341587 7.3363e-12 2.79514e+07 -9.78586e-20 -1.28393e+06)
(-1.95925e+07 -0.0158956 -1.10044e-11 2.79514e+07 -7.71974e-10 -1.28393e+06)
(-1.95925e+07 -0.0430824 -7.80142e-10 2.79514e+07 -8.70564e-18 -1.28393e+06)
(-1.95925e+07 0.0689447 5.18872e-10 2.79514e+07 7.71974e-10 -1.28393e+06)
(-1.95925e+07 -0.0396597 -2.55768e-10 2.79514e+07 3.85987e-10 -1.28393e+06)
(-1.95925e+07 0.0496749 2.50266e-10 2.79514e+07 -7.71974e-10 -1.28393e+06)
(-1.95925e+07 -0.0956902 -7.78308e-10 2.79514e+07 -3.85987e-10 -1.28393e+06)
(-1.95925e+07 0.00828677 5.20706e-10 2.79514e+07 1.15796e-09 -1.28393e+06)
(-1.95925e+07 -0.0893147 2.68606e-10 2.79514e+07 2.21653e-18 -1.28393e+06)
(-1.95925e+07 0.113347 -3.66815e-12 2.79514e+07 2.28819e-18 -1.28393e+06)
(-1.95925e+07 -0.129355 2.66772e-10 2.79514e+07 -3.85987e-10 -1.28393e+06)
(-1.95925e+07 0.120839 -2.66772e-10 2.79514e+07 -3.85987e-10 -1.28393e+06)
(-1.95925e+07 -0.0816508 -1.83407e-12 2.79514e+07 -1.15796e-09 -1.28393e+06)
(-1.95925e+07 0.105061 -1.04875e-09 2.79514e+07 7.71974e-10 -1.28393e+06)
(-1.95925e+07 -0.0496273 2.53934e-10 2.79514e+07 7.71974e-10 -1.28393e+06)
(-1.95925e+07 0.000586107 3.66814e-12 2.79514e+07 -7.71974e-10 -1.28393e+06)
(-1.95925e+07 -0.0171874 5.33545e-10 2.79514e+07 7.71974e-10 -1.28393e+06)
(-1.95925e+07 -0.0168925 -5.50222e-12 2.79514e+07 3.85987e-10 -1.28393e+06)
(-1.95925e+07 -0.00298773 -8.2019e-19 2.79514e+07 -7.71974e-10 -1.28393e+06)
(-1.95925e+07 -0.0356578 -2.63104e-10 2.79514e+07 -3.85987e-10 -1.28393e+06)
(-1.95925e+07 0.0100883 -2.64938e-10 2.79514e+07 1.8916e-18 -1.28393e+06)
(-1.95925e+07 0.056627 1.83407e-12 2.79514e+07 3.85987e-10 -1.28393e+06)
(-1.95925e+07 -0.0339809 7.91147e-10 2.79514e+07 -6.97355e-18 -1.28393e+06)
(-1.95925e+07 0.0449141 3.66815e-12 2.79514e+07 -1.0561e-18 -1.28393e+06)
(-1.95925e+07 -0.0431604 2.57602e-10 2.79514e+07 -7.71974e-10 -1.28393e+06)
(-1.95925e+07 0.034658 -5.15204e-10 2.79514e+07 7.71974e-10 -1.28393e+06)
(-1.95925e+07 -0.0471216 7.76474e-10 2.79514e+07 -7.0414e-18 -1.28393e+06)
(-1.95925e+07 0.0347586 -7.81976e-10 2.79514e+07 -1.15796e-09 -1.28393e+06)
(-1.95925e+07 -0.000159962 -3.66815e-12 2.79514e+07 7.71974e-10 -1.28393e+06)
(-1.95925e+07 -0.0307778 1.83408e-12 2.79514e+07 3.85987e-10 -1.28393e+06)
(-1.95925e+07 0.0106218 2.64938e-10 2.79514e+07 7.71974e-10 -1.28393e+06)
(-1.95925e+07 -0.0177201 2.55768e-10 2.79514e+07 -1.15796e-09 -1.28393e+06)
(-1.95925e+07 0.0214721 1.46726e-11 2.79514e+07 -9.01039e-18 -1.28393e+06)
(-1.95925e+07 0.0418192 2.53934e-10 2.79514e+07 7.71974e-10 -1.28393e+06)
(-1.95925e+07 -0.0428554 -2.57602e-10 2.79514e+07 3.96664e-18 -1.28393e+06)
(-1.95925e+07 0.0765659 5.2254e-10 2.79514e+07 2.74326e-19 -1.28393e+06)
(-1.95925e+07 -0.0421564 1.30525e-18 2.79514e+07 -1.54395e-09 -1.28393e+06)
(-1.95925e+07 0.0420502 -5.18872e-10 2.79514e+07 7.71974e-10 -1.28393e+06)
(-1.95925e+07 -0.0387377 -7.33629e-12 2.79514e+07 1.54395e-09 -1.28393e+06)
(-1.95925e+07 -0.00941852 1.05608e-09 2.79514e+07 -7.71974e-10 -1.28393e+06)
(-1.95925e+07 -0.00379653 -2.59436e-10 2.79514e+07 -3.85987e-10 -1.28393e+06)
(-1.95925e+07 -0.055597 1.74811e-18 2.79514e+07 7.71974e-10 -1.28393e+06)
(-1.95925e+07 0.0849801 2.59436e-10 2.79514e+07 -3.85987e-10 -1.28393e+06)
(-1.95925e+07 -0.0375965 -2.64938e-10 2.79514e+07 -1.54395e-09 -1.28393e+06)
(-1.95925e+07 0.0272803 9.17037e-12 2.79514e+07 3.85987e-10 -1.28393e+06)
(-1.95925e+07 -0.0499818 -2.7044e-10 2.79514e+07 1.15796e-09 -1.28393e+06)
(-1.95925e+07 0.0409365 0 2.79514e+07 0 -1.28393e+06)
(-1.95925e+07 -0.0277624 -1.83407e-12 2.79514e+07 -3.85987e-10 -1.28393e+06)
(-1.95925e+07 1.64248e-05 -1.83408e-12 2.79514e+07 -1.15796e-09 -1.28393e+06)
(-1.95925e+07 -0.0339185 -5.20706e-10 2.79514e+07 3.85987e-10 -1.28393e+06)
(-1.95925e+07 0.0692006 2.57602e-10 2.79514e+07 7.71974e-10 -1.28393e+06)
(-1.95925e+07 -0.0110886 -1.83407e-12 2.79514e+07 -1.15796e-09 -1.28393e+06)
(-1.95925e+07 -0.0136779 -5.2254e-10 2.79514e+07 -2.29461e-18 -1.28393e+06)
(-1.95925e+07 0.0123298 -3.66815e-12 2.79514e+07 7.71974e-10 -1.28393e+06)
(-1.91428e+07 -0.0182933 -2.62455e-10 2.73353e+07 1.07533e-19 -1.24667e+06)
(-1.91428e+07 0.0254169 -5.23603e-10 2.73353e+07 -7.44845e-10 -1.24667e+06)
(-1.91428e+07 -0.0252386 -1.93701e-13 2.73353e+07 2.45936e-18 -1.24667e+06)
(-1.91428e+07 0.0351655 -1.76685e-12 2.73353e+07 1.11727e-09 -1.24667e+06)
(-1.91428e+07 -0.052984 -5.29557e-10 2.73353e+07 -7.44845e-10 -1.24667e+06)
(-1.91428e+07 0.0387246 2.65795e-10 2.73353e+07 -1.36115e-17 -1.24667e+06)
(-1.91428e+07 -0.0204632 -8.18072e-12 2.73353e+07 5.19228e-18 -1.24667e+06)
(-1.91428e+07 0.0374038 5.76035e-12 2.73353e+07 4.07202e-18 -1.24667e+06)
(-1.91428e+07 0.000434562 -2.69522e-10 2.73353e+07 7.44845e-10 -1.24667e+06)
(-1.91428e+07 0.0139976 2.59381e-10 2.73353e+07 -3.72422e-10 -1.24667e+06)
(-1.91428e+07 -0.0230465 -4.84072e-12 2.73353e+07 -1.55451e-18 -1.24667e+06)
(-1.91428e+07 0.0353194 7.88478e-10 2.73353e+07 7.44845e-10 -1.24667e+06)
(-1.91428e+07 -0.0745155 -5.18762e-10 2.73353e+07 7.44845e-10 -1.24667e+06)
(-1.91428e+07 0.0606087 -2.63568e-10 2.73353e+07 -7.44845e-10 -1.24667e+06)
(-1.91428e+07 -0.0589914 -7.75457e-10 2.73353e+07 4.64832e-18 -1.24667e+06)
(-1.91428e+07 0.0229111 -4.59818e-13 2.73353e+07 3.72422e-10 -1.24667e+06)
(-1.91428e+07 -0.0332158 -1.71137e-18 2.73353e+07 -7.44845e-10 -1.24667e+06)
(-1.91428e+07 -0.00462301 2.61801e-10 2.73353e+07 -3.72422e-10 -1.24667e+06)
(-1.91428e+07 0.000114657 -2.64875e-10 2.73353e+07 8.63769e-19 -1.24667e+06)
(-1.91428e+07 -0.00823856 -5.2491e-10 2.73353e+07 2.7479e-18 -1.24667e+06)
(-1.91428e+07 0.0325326 1.76685e-12 2.73353e+07 3.72422e-10 -1.24667e+06)
(-1.91428e+07 -0.047721 -5.24256e-10 2.73353e+07 3.72422e-10 -1.24667e+06)
(-1.91428e+07 0.0594552 2.62455e-10 2.73353e+07 -3.18487e-18 -1.24667e+06)
(-1.91428e+07 -0.069451 2.60035e-10 2.73353e+07 1.4426e-18 -1.24667e+06)
(-1.91428e+07 0.0510021 -2.65335e-10 2.73353e+07 -1.11727e-09 -1.24667e+06)
(-1.91428e+07 -0.062032 -2.58461e-10 2.73353e+07 -3.72422e-10 -1.24667e+06)
(-1.91428e+07 0.0227064 2.5408e-10 2.73353e+07 7.44845e-10 -1.24667e+06)
(-1.91428e+07 -0.0280234 -1.04321e-09 2.73353e+07 3.72422e-10 -1.24667e+06)
(-1.91428e+07 0.0354576 -2.61801e-10 2.73353e+07 3.72422e-10 -1.24667e+06)
(-1.91428e+07 -0.0481081 5.49425e-12 2.73353e+07 -3.72422e-10 -1.24667e+06)
(-1.91428e+07 0.0693607 5.2537e-10 2.73353e+07 3.72422e-10 -1.24667e+06)
(-1.91428e+07 -0.047779 5.19609e-10 2.73353e+07 3.72422e-10 -1.24667e+06)
(-1.91428e+07 0.0368015 5.95406e-12 2.73353e+07 9.71805e-19 -1.24667e+06)
(-1.91428e+07 -0.0246174 -2.88017e-12 2.73353e+07 -3.72422e-10 -1.24667e+06)
(-1.91428e+07 0.0178147 2.88018e-12 2.73353e+07 -3.72422e-10 -1.24667e+06)
(-1.91428e+07 -0.0276253 -1.11333e-12 2.73353e+07 4.58133e-20 -1.24667e+06)
(-1.91428e+07 0.0117021 1.76685e-12 2.73353e+07 -3.72422e-10 -1.24667e+06)
(-1.91428e+07 -0.0179516 -5.16535e-10 2.73353e+07 7.44845e-10 -1.24667e+06)
(-1.91428e+07 -0.00271906 -5.18762e-10 2.73353e+07 7.44845e-10 -1.24667e+06)
(-1.91428e+07 0.024864 1.30704e-12 2.73353e+07 -7.44845e-10 -1.24667e+06)
(-1.91428e+07 -0.0285233 1.04851e-09 2.73353e+07 -7.44845e-10 -1.24667e+06)
(-1.91428e+07 0.00983084 0 2.73353e+07 0 -1.24667e+06)
(-1.91428e+07 0.0255267 5.23603e-10 2.73353e+07 7.44845e-10 -1.24667e+06)
(-1.91428e+07 -0.00577489 -5.30054e-12 2.73353e+07 3.72422e-10 -1.24667e+06)
(-1.91428e+07 0.00926118 2.42036e-12 2.73353e+07 -7.44845e-10 -1.24667e+06)
(-1.91428e+07 -0.00817868 -2.61995e-10 2.73353e+07 3.72422e-10 -1.24667e+06)
(-1.91428e+07 0.0433163 5.19609e-10 2.73353e+07 3.72422e-10 -1.24667e+06)
(-1.91428e+07 -0.0364369 -2.42037e-12 2.73353e+07 -7.44845e-10 -1.24667e+06)
(-1.91428e+07 0.0363471 -5.21376e-10 2.73353e+07 6.14255e-18 -1.24667e+06)
(-1.91428e+07 -0.0371156 5.49425e-12 2.73353e+07 3.72422e-10 -1.24667e+06)
(-1.91428e+07 0.038519 -7.80104e-10 2.73353e+07 1.23118e-17 -1.24667e+06)
(-1.91428e+07 -0.00745976 -7.8187e-10 2.73353e+07 -3.72422e-10 -1.24667e+06)
(-1.91428e+07 0.00314242 -2.59575e-10 2.73353e+07 3.72422e-10 -1.24667e+06)
(-1.91428e+07 0.0410715 -5.23603e-10 2.73353e+07 7.44845e-10 -1.24667e+06)
(-1.91428e+07 -0.047683 -4.64702e-12 2.73353e+07 -1.48969e-09 -1.24667e+06)
(-1.91428e+07 0.064515 5.25829e-10 2.73353e+07 -7.44845e-10 -1.24667e+06)
(-1.91428e+07 -0.0242697 -1.04982e-09 2.73353e+07 1.48969e-09 -1.24667e+06)
(-1.91428e+07 0.00775957 2.57154e-10 2.73353e+07 3.72422e-10 -1.24667e+06)
(-1.91428e+07 -0.0250105 -1.04256e-09 2.73353e+07 -7.44845e-10 -1.24667e+06)
(-1.91428e+07 0.0374539 5.23603e-10 2.73353e+07 -7.2897e-18 -1.24667e+06)
(-1.91428e+07 -0.033503 -5.22489e-10 2.73353e+07 7.44845e-10 -1.24667e+06)
(-1.91428e+07 0.0331923 7.81411e-10 2.73353e+07 -1.66345e-17 -1.24667e+06)
(-1.91428e+07 -0.0554475 -7.80104e-10 2.73353e+07 -7.44845e-10 -1.24667e+06)
(-1.91428e+07 0.0209289 2.59381e-10 2.73353e+07 -3.72422e-10 -1.24667e+06)
(-1.91428e+07 -0.0607532 2.63568e-10 2.73353e+07 7.44845e-10 -1.24667e+06)
(-1.91428e+07 0.0700895 1.04275e-09 2.73353e+07 -2.61334e-17 -1.24667e+06)
(-1.91428e+07 -0.0814853 -2.57808e-10 2.73353e+07 -6.8948e-18 -1.24667e+06)
(-1.91428e+07 0.0793124 -4.64702e-12 2.73353e+07 -1.02572e-19 -1.24667e+06)
(-1.91428e+07 -0.0581446 -5.17842e-10 2.73353e+07 9.41225e-18 -1.24667e+06)
(-1.91428e+07 0.0634591 -7.82984e-10 2.73353e+07 3.72422e-10 -1.24667e+06)
(-1.91428e+07 -0.031092 -2.42036e-12 2.73353e+07 -7.44845e-10 -1.24667e+06)
(-1.91428e+07 0.0107504 -2.64222e-10 2.73353e+07 -1.11727e-09 -1.24667e+06)
(-1.91428e+07 -0.0085424 -5.19149e-10 2.73353e+07 7.44845e-10 -1.24667e+06)
(-1.91428e+07 -0.00648287 5.16076e-10 2.73353e+07 1.11727e-09 -1.24667e+06)
(-1.91428e+07 0.00147436 2.64222e-10 2.73353e+07 -3.72422e-10 -1.24667e+06)
(-1.91428e+07 -0.0121608 2.42037e-12 2.73353e+07 9.2337e-19 -1.24667e+06)
(-1.91428e+07 0.00269967 6.53521e-13 2.73353e+07 -3.72422e-10 -1.24667e+06)
(-1.91428e+07 0.028885 -1.76685e-12 2.73353e+07 -1.11727e-09 -1.24667e+06)
(-1.91428e+07 -0.0235305 2.62261e-10 2.73353e+07 1.41637e-18 -1.24667e+06)
(-1.91428e+07 0.0316812 5.21376e-10 2.73353e+07 7.44845e-10 -1.24667e+06)
(-1.91428e+07 -0.0275297 2.60035e-10 2.73353e+07 -1.30108e-18 -1.24667e+06)
(-1.91428e+07 0.0254814 -7.82524e-10 2.73353e+07 6.35703e-18 -1.24667e+06)
(-1.91428e+07 -0.0275154 2.56961e-10 2.73353e+07 3.72422e-10 -1.24667e+06)
(-1.91428e+07 0.0209751 3.7274e-12 2.73353e+07 -1.04518e-18 -1.24667e+06)
(-1.91428e+07 -0.00189313 1.76685e-12 2.73353e+07 -3.72422e-10 -1.24667e+06)
(-1.91428e+07 -0.0128205 -2.62455e-10 2.73353e+07 4.03089e-19 -1.24667e+06)
(-1.91428e+07 0.0111754 -6.53516e-13 2.73353e+07 3.72422e-10 -1.24667e+06)
(-1.91428e+07 -0.00813144 2.52967e-10 2.73353e+07 -7.44845e-10 -1.24667e+06)
(-1.91428e+07 0.00895059 1.06011e-11 2.73353e+07 -4.94454e-18 -1.24667e+06)
(-1.91428e+07 0.0248233 2.54734e-10 2.73353e+07 1.11727e-09 -1.24667e+06)
(-1.91428e+07 -0.0249664 -2.61801e-10 2.73353e+07 -3.72422e-10 -1.24667e+06)
(-1.91428e+07 0.0451106 1.04675e-09 2.73353e+07 -3.72422e-10 -1.24667e+06)
(-1.91428e+07 -0.0290383 -2.62455e-10 2.73353e+07 6.37689e-19 -1.24667e+06)
(-1.91428e+07 0.0271208 -5.16535e-10 2.73353e+07 7.44845e-10 -1.24667e+06)
(-1.91428e+07 -0.0211892 2.51854e-10 2.73353e+07 -7.44845e-10 -1.24667e+06)
(-1.91428e+07 -0.00233482 5.27596e-10 2.73353e+07 -3.72422e-10 -1.24667e+06)
(-1.91428e+07 0.00426906 -2.88017e-12 2.73353e+07 1.11727e-09 -1.24667e+06)
(-1.91428e+07 -0.0332171 0 2.73353e+07 0 -1.24667e+06)
(-1.91428e+07 0.0443682 1.0474e-09 2.73353e+07 -6.9675e-18 -1.24667e+06)
(-1.91428e+07 -0.029454 -2.88018e-12 2.73353e+07 -1.11727e-09 -1.24667e+06)
(-1.91428e+07 0.0234563 -5.12542e-10 2.73353e+07 3.72422e-10 -1.24667e+06)
(-1.91428e+07 -0.0309717 2.56041e-10 2.73353e+07 1.11727e-09 -1.24667e+06)
(-1.91428e+07 0.0248819 -2.60688e-10 2.73353e+07 -3.72422e-10 -1.24667e+06)
(-1.91428e+07 -0.0193214 -2.64222e-10 2.73353e+07 -3.72422e-10 -1.24667e+06)
(-1.91428e+07 0.00932296 -2.60688e-10 2.73353e+07 -3.72422e-10 -1.24667e+06)
(-1.91428e+07 -0.0216509 -5.20069e-10 2.73353e+07 -1.76557e-18 -1.24667e+06)
(-1.91428e+07 0.0345992 2.60035e-10 2.73353e+07 -3.18874e-18 -1.24667e+06)
(-1.91428e+07 -0.00976427 0 2.73353e+07 0 -1.24667e+06)
(-1.91428e+07 -0.00273718 -5.20069e-10 2.73353e+07 -1.24139e-18 -1.24667e+06)
(-1.91428e+07 0.00757506 0 2.73353e+07 0 -1.24667e+06)
(-1.85087e+07 -0.0100629 6.54174e-13 2.67152e+07 -3.59299e-10 -1.22094e+06)
(-1.85087e+07 0.00585013 3.36406e-12 2.67152e+07 -1.76371e-18 -1.22094e+06)
(-1.85087e+07 -0.0150106 -1.02369e-09 2.67152e+07 -2.46842e-18 -1.22094e+06)
(-1.85087e+07 0.0151777 -5.08619e-10 2.67152e+07 3.59299e-10 -1.22094e+06)
(-1.85087e+07 -0.000458615 7.66106e-10 2.67152e+07 -9.28258e-19 -1.22094e+06)
(-1.85087e+07 0.0186223 -5.05629e-10 2.67152e+07 -7.18598e-10 -1.22094e+06)
(-1.85087e+07 -0.0134922 -2.59169e-10 2.67152e+07 1.00852e-18 -1.22094e+06)
(-1.85087e+07 0.00232224 -5.05629e-10 2.67152e+07 7.18598e-10 -1.22094e+06)
(-1.85087e+07 -0.0124344 2.54123e-10 2.67152e+07 3.59299e-10 -1.22094e+06)
(-1.85087e+07 0.0110903 5.19366e-10 2.67152e+07 -1.28401e-19 -1.22094e+06)
(-1.85087e+07 -0.0111821 -3.73774e-12 2.67152e+07 -1.0779e-09 -1.22094e+06)
(-1.85087e+07 0.016797 5.41978e-12 2.67152e+07 -7.18598e-10 -1.22094e+06)
(-1.85087e+07 -0.0153857 5.08993e-10 2.67152e+07 1.4372e-09 -1.22094e+06)
(-1.85087e+07 0.00754104 -5.04609e-12 2.67152e+07 3.59299e-10 -1.22094e+06)
(-1.85087e+07 -0.0257744 2.3362e-12 2.67152e+07 -7.18598e-10 -1.22094e+06)
(-1.85087e+07 0.0101077 5.12357e-10 2.67152e+07 -2.67909e-18 -1.22094e+06)
(-1.85087e+07 -0.0079334 2.53469e-10 2.67152e+07 -1.36937e-18 -1.22094e+06)
(-1.85087e+07 0.00354661 5.04609e-12 2.67152e+07 3.59299e-10 -1.22094e+06)
(-1.85087e+07 -0.00431936 1.30835e-12 2.67152e+07 7.18598e-10 -1.22094e+06)
(-1.85087e+07 -0.0164717 1.02864e-09 2.67152e+07 -7.18598e-10 -1.22094e+06)
(-1.85087e+07 0.00537626 6.72812e-12 2.67152e+07 3.53937e-18 -1.22094e+06)
(-1.85087e+07 -0.0185291 2.52441e-10 2.67152e+07 -5.03135e-18 -1.22094e+06)
(-1.85087e+07 0.0133984 7.73208e-10 2.67152e+07 -3.59299e-10 -1.22094e+06)
(-1.85087e+07 -0.0237577 2.55151e-10 2.67152e+07 3.59299e-10 -1.22094e+06)
(-1.85087e+07 0.0181703 -2.56833e-10 2.67152e+07 1.42933e-18 -1.22094e+06)
(-1.85087e+07 -0.014381 -5.06657e-10 2.67152e+07 -5.80488e-18 -1.22094e+06)
(-1.85087e+07 0.0162596 4.01824e-12 2.67152e+07 3.59299e-10 -1.22094e+06)
(-1.85087e+07 -0.0214201 1.30834e-12 2.67152e+07 1.81822e-18 -1.22094e+06)
(-1.85087e+07 0.0134058 2.53469e-10 2.67152e+07 -1.4372e-09 -1.22094e+06)
(-1.85087e+07 -0.0182675 2.58234e-10 2.67152e+07 -3.59299e-10 -1.22094e+06)
(-1.85087e+07 0.00887511 -3.36406e-12 2.67152e+07 7.18598e-10 -1.22094e+06)
(-1.85087e+07 -0.017001 -4.67241e-12 2.67152e+07 -2.62451e-18 -1.22094e+06)
(-1.85087e+07 0.0160102 2.56179e-10 2.67152e+07 3.59299e-10 -1.22094e+06)
(-1.85087e+07 -0.0133771 -4.01823e-12 2.67152e+07 3.59299e-10 -1.22094e+06)
(-1.85087e+07 0.00844251 -5.13011e-10 2.67152e+07 -3.59299e-10 -1.22094e+06)
(-1.85087e+07 -0.00575914 2.56179e-10 2.67152e+07 -3.59299e-10 -1.22094e+06)
(-1.85087e+07 0.00603774 0 2.67152e+07 0 -1.22094e+06)
(-1.85087e+07 -0.00112231 5.13666e-10 2.67152e+07 -2.68663e-18 -1.22094e+06)
(-1.85087e+07 -0.00554467 5.08993e-10 2.67152e+07 -5.08196e-18 -1.22094e+06)
(-1.85087e+07 -0.000758422 -8.03646e-12 2.67152e+07 -7.18598e-10 -1.22094e+06)
(-1.85087e+07 0.00710795 5.15721e-10 2.67152e+07 -7.54863e-18 -1.22094e+06)
(-1.85087e+07 0.00488805 -3.36406e-12 2.67152e+07 7.18598e-10 -1.22094e+06)
(-1.85087e+07 -0.00723322 3.36406e-12 2.67152e+07 7.18598e-10 -1.22094e+06)
(-1.85087e+07 -0.000173728 5.06937e-10 2.67152e+07 -1.47974e-17 -1.22094e+06)
(-1.85087e+07 0.0155621 -2.50759e-10 2.67152e+07 3.59299e-10 -1.22094e+06)
(-1.85087e+07 -0.0076791 -3.08357e-12 2.67152e+07 4.79931e-18 -1.22094e+06)
(-1.85087e+07 0.00544673 5.17403e-10 2.67152e+07 -3.59299e-10 -1.22094e+06)
(-1.85087e+07 -0.00664166 -2.57861e-10 2.67152e+07 7.18598e-10 -1.22094e+06)
(-1.85087e+07 0.0222396 -2.05572e-12 2.67152e+07 -1.4372e-09 -1.22094e+06)
(-1.85087e+07 -0.0046317 -2.52067e-10 2.67152e+07 -3.59299e-10 -1.22094e+06)
(-1.85087e+07 0.00812196 2.51787e-10 2.67152e+07 1.0779e-09 -1.22094e+06)
(-1.85087e+07 -0.000747599 2.58515e-10 2.67152e+07 3.59299e-10 -1.22094e+06)
(-1.85087e+07 -0.00237239 2.99038e-12 2.67152e+07 3.59299e-10 -1.22094e+06)
(-1.85087e+07 0.0142949 -1.68203e-12 2.67152e+07 -3.59299e-10 -1.22094e+06)
(-1.85087e+07 -0.00555861 5.11329e-10 2.67152e+07 -7.18598e-10 -1.22094e+06)
(-1.85087e+07 0.00643182 -5.00583e-10 2.67152e+07 1.0779e-09 -1.22094e+06)
(-1.85087e+07 -0.0136144 -2.4294e-12 2.67152e+07 3.59299e-10 -1.22094e+06)
(-1.85087e+07 0.0238983 5.18057e-10 2.67152e+07 -7.18598e-10 -1.22094e+06)
(-1.85087e+07 -0.00761994 -2.59543e-10 2.67152e+07 -3.59299e-10 -1.22094e+06)
(-1.85087e+07 0.00073461 6.72812e-12 2.67152e+07 -1.2305e-17 -1.22094e+06)
(-1.85087e+07 -0.0233313 2.52441e-10 2.67152e+07 -1.39356e-17 -1.22094e+06)
(-1.85087e+07 0.00907324 3.73686e-13 2.67152e+07 -3.59299e-10 -1.22094e+06)
(-1.85087e+07 -0.011932 2.55151e-10 2.67152e+07 3.59299e-10 -1.22094e+06)
(-1.85087e+07 0.0239916 6.54176e-13 2.67152e+07 -3.59299e-10 -1.22094e+06)
(-1.85087e+07 -0.0250747 -1.68203e-12 2.67152e+07 -1.0779e-09 -1.22094e+06)
(-1.85087e+07 0.0149385 5.14413e-10 2.67152e+07 7.18598e-10 -1.22094e+06)
(-1.85087e+07 -0.0246305 -3.73775e-12 2.67152e+07 1.0779e-09 -1.22094e+06)
(-1.85087e+07 0.0232 5.14693e-10 2.67152e+07 -3.66691e-18 -1.22094e+06)
(-1.85087e+07 -0.0273425 -5.12357e-10 2.67152e+07 4.09245e-18 -1.22094e+06)
(-1.85087e+07 0.0106336 5.14693e-10 2.67152e+07 -1.02324e-17 -1.22094e+06)
(-1.85087e+07 -0.0131935 2.55805e-10 2.67152e+07 -5.61534e-18 -1.22094e+06)
(-1.85087e+07 0.0122936 -5.07965e-10 2.67152e+07 4.12321e-18 -1.22094e+06)
(-1.85087e+07 -0.002675 -5.09367e-10 2.67152e+07 -3.59299e-10 -1.22094e+06)
(-1.85087e+07 0.00109708 5.12357e-10 2.67152e+07 -7.18598e-10 -1.22094e+06)
(-1.85087e+07 0.00222952 2.54497e-10 2.67152e+07 -4.91739e-19 -1.22094e+06)
(-1.85087e+07 0.00653093 -2.59169e-10 2.67152e+07 2.46267e-18 -1.22094e+06)
(-1.85087e+07 -0.00681891 2.54497e-10 2.67152e+07 -2.13713e-18 -1.22094e+06)
(-1.85087e+07 -0.00125363 -5.13666e-10 2.67152e+07 4.11597e-18 -1.22094e+06)
(-1.85087e+07 -0.00909566 -5.12357e-10 2.67152e+07 -7.18598e-10 -1.22094e+06)
(-1.85087e+07 0.0121292 2.05572e-12 2.67152e+07 1.03707e-17 -1.22094e+06)
(-1.85087e+07 -0.00808724 -1.68203e-12 2.67152e+07 1.0779e-09 -1.22094e+06)
(-1.85087e+07 0.012154 2.3362e-12 2.67152e+07 7.18598e-10 -1.22094e+06)
(-1.85087e+07 -0.00489425 -3.73774e-12 2.67152e+07 -1.0779e-09 -1.22094e+06)
(-1.85087e+07 0.00247672 2.59916e-10 2.67152e+07 -7.18598e-10 -1.22094e+06)
(-1.85087e+07 -0.00339629 -1.68203e-12 2.67152e+07 1.0779e-09 -1.22094e+06)
(-1.85087e+07 0.00576793 -5.13011e-10 2.67152e+07 3.59299e-10 -1.22094e+06)
(-1.85087e+07 0.00685264 -5.11329e-10 2.67152e+07 1.22732e-18 -1.22094e+06)
(-1.85087e+07 0.0030742 2.51787e-10 2.67152e+07 -1.0779e-09 -1.22094e+06)
(-1.85087e+07 -0.00404843 -5.03573e-10 2.67152e+07 5.42464e-18 -1.22094e+06)
(-1.85087e+07 0.00515874 2.51787e-10 2.67152e+07 1.0779e-09 -1.22094e+06)
(-1.85087e+07 -0.00467282 2.51787e-10 2.67152e+07 -1.0779e-09 -1.22094e+06)
(-1.85087e+07 0.00893038 5.41978e-12 2.67152e+07 -6.59187e-18 -1.22094e+06)
(-1.85087e+07 -0.0108366 -5.18057e-10 2.67152e+07 7.18598e-10 -1.22094e+06)
(-1.85087e+07 0.00820213 3.36406e-12 2.67152e+07 -3.77706e-18 -1.22094e+06)
(-1.85087e+07 -0.00182767 5.07965e-10 2.67152e+07 4.06729e-19 -1.22094e+06)
(-1.85087e+07 0.00298736 -5.07311e-10 2.67152e+07 -3.59299e-10 -1.22094e+06)
(-1.85087e+07 0.00867658 -2.57487e-10 2.67152e+07 3.59299e-10 -1.22094e+06)
(-1.85087e+07 -0.00617049 2.50105e-10 2.67152e+07 -7.18598e-10 -1.22094e+06)
(-1.85087e+07 0.000105016 2.58234e-10 2.67152e+07 -3.59299e-10 -1.22094e+06)
(-1.85087e+07 -0.0159216 2.51132e-10 2.67152e+07 7.18598e-10 -1.22094e+06)
(-1.85087e+07 0.0140776 -5.08993e-10 2.67152e+07 1.99406e-18 -1.22094e+06)
(-1.85087e+07 -0.00832424 5.12357e-10 2.67152e+07 7.18598e-10 -1.22094e+06)
(-1.85087e+07 0.00592624 2.55805e-10 2.67152e+07 7.18598e-10 -1.22094e+06)
(-1.85087e+07 -0.00812579 2.57487e-10 2.67152e+07 -3.59299e-10 -1.22094e+06)
(-1.85087e+07 0.0147488 -5.11329e-10 2.67152e+07 -7.18598e-10 -1.22094e+06)
(-1.85087e+07 -0.00715326 1.68203e-12 2.67152e+07 -3.59299e-10 -1.22094e+06)
(-1.85087e+07 -0.00216386 -5.13666e-10 2.67152e+07 8.61639e-19 -1.22094e+06)
(-1.85087e+07 -0.00607155 0 2.67152e+07 0 -1.22094e+06)
(-1.85087e+07 0.00695543 0 2.67152e+07 0 -1.22094e+06)
(-1.85087e+07 0.00106844 0 2.67152e+07 0 -1.22094e+06)
(-1.80035e+07 -0.00664238 -2.55278e-10 2.61328e+07 -9.11151e-19 -1.19179e+06)
(-1.80035e+07 0.00241008 3.22514e-12 2.61328e+07 6.93888e-10 -1.19179e+06)
(-1.80035e+07 -0.00942655 2.52053e-10 2.61328e+07 6.93888e-10 -1.19179e+06)
(-1.80035e+07 0.0106375 -1.90942e-12 2.61328e+07 -1.38778e-09 -1.19179e+06)
(-1.80035e+07 0.00412182 5.06609e-10 2.61328e+07 -6.93888e-10 -1.19179e+06)
(-1.80035e+07 0.0117537 -5.06016e-10 2.61328e+07 1.38778e-09 -1.19179e+06)
(-1.80035e+07 -0.0103642 -1.90942e-12 2.61328e+07 -6.0394e-19 -1.19179e+06)
(-1.80035e+07 -0.00370094 5.09241e-10 2.61328e+07 -6.93888e-10 -1.19179e+06)
(-1.80035e+07 -0.0132152 -7.76601e-12 2.61328e+07 -6.93888e-10 -1.19179e+06)
(-1.80035e+07 0.00675243 2.52647e-10 2.61328e+07 3.45162e-18 -1.19179e+06)
(-1.80035e+07 -0.00726858 1.00427e-09 2.61328e+07 6.93888e-10 -1.19179e+06)
(-1.80035e+07 0.0109593 -5.01475e-10 2.61328e+07 -5.07334e-19 -1.19179e+06)
(-1.80035e+07 -0.0047797 3.22514e-12 2.61328e+07 6.93888e-10 -1.19179e+06)
(-1.80035e+07 0.00153475 -6.45029e-12 2.61328e+07 5.91189e-18 -1.19179e+06)
(-1.80035e+07 -0.0142624 -2.52053e-10 2.61328e+07 -6.93888e-10 -1.19179e+06)
(-1.80035e+07 0.00639718 0 2.61328e+07 0 -1.19179e+06)
(-1.80035e+07 -0.00254022 -2.55278e-10 2.61328e+07 2.53272e-19 -1.19179e+06)
(-1.80035e+07 0.00301314 0 2.61328e+07 0 -1.19179e+06)
(-1.80035e+07 -0.0044857 4.95024e-10 2.61328e+07 -1.38778e-09 -1.19179e+06)
(-1.80035e+07 -0.014077 5.05294e-10 2.61328e+07 -7.25274e-18 -1.19179e+06)
(-1.80035e+07 -0.000916764 -5.12466e-10 2.61328e+07 1.38778e-09 -1.19179e+06)
(-1.80035e+07 -0.0123432 -7.76601e-12 2.61328e+07 -6.93888e-10 -1.19179e+06)
(-1.80035e+07 0.0043248 -5.04106e-10 2.61328e+07 7.37922e-18 -1.19179e+06)
(-1.80035e+07 -0.0122926 -2.55278e-10 2.61328e+07 1.38778e-09 -1.19179e+06)
(-1.80035e+07 0.0101066 2.48828e-10 2.61328e+07 1.5788e-18 -1.19179e+06)
(-1.80035e+07 -0.00501897 2.53962e-10 2.61328e+07 -6.93888e-10 -1.19179e+06)
(-1.80035e+07 0.0123444 2.50737e-10 2.61328e+07 -1.06305e-18 -1.19179e+06)
(-1.80035e+07 -0.0136777 5.01475e-10 2.61328e+07 -1.07955e-18 -1.19179e+06)
(-1.80035e+07 0.00677893 -2.55278e-10 2.61328e+07 3.27715e-18 -1.19179e+06)
(-1.80035e+07 -0.0116567 4.54087e-12 2.61328e+07 7.05803e-19 -1.19179e+06)
(-1.80035e+07 -0.00161943 3.22514e-12 2.61328e+07 6.93888e-10 -1.19179e+06)
(-1.80035e+07 -0.0103458 -1.90942e-12 2.61328e+07 1.63856e-18 -1.19179e+06)
(-1.80035e+07 0.00693034 6.45029e-12 2.61328e+07 -6.71699e-18 -1.19179e+06)
(-1.80035e+07 -0.0075126 -2.53962e-10 2.61328e+07 6.93888e-10 -1.19179e+06)
(-1.80035e+07 0.00462396 2.52053e-10 2.61328e+07 -6.93888e-10 -1.19179e+06)
(-1.80035e+07 -0.000826413 3.22514e-12 2.61328e+07 -6.93888e-10 -1.19179e+06)
(-1.80035e+07 0.00470102 -3.22514e-12 2.61328e+07 -6.93888e-10 -1.19179e+06)
(-1.80035e+07 0.000969512 1.90942e-12 2.61328e+07 -2.60734e-18 -1.19179e+06)
(-1.80035e+07 -0.00283054 -5.06016e-10 2.61328e+07 1.38778e-09 -1.19179e+06)
(-1.80035e+07 -0.00274987 -5.13456e-12 2.61328e+07 -6.93888e-10 -1.19179e+06)
(-1.80035e+07 0.00789587 -4.9634e-10 2.61328e+07 -6.93888e-10 -1.19179e+06)
(-1.80035e+07 0.00246995 -3.22514e-12 2.61328e+07 6.93888e-10 -1.19179e+06)
(-1.80035e+07 -0.00816374 0 2.61328e+07 0 -1.19179e+06)
(-1.80035e+07 0.000495558 5.047e-10 2.61328e+07 6.93888e-10 -1.19179e+06)
(-1.80035e+07 0.0109351 -1.90942e-12 2.61328e+07 1.59072e-18 -1.19179e+06)
(-1.80035e+07 -0.00461652 1.26145e-09 2.61328e+07 -6.93888e-10 -1.19179e+06)
(-1.80035e+07 0.000765421 3.22514e-12 2.61328e+07 6.93888e-10 -1.19179e+06)
(-1.80035e+07 0.000537054 4.99565e-10 2.61328e+07 4.38342e-19 -1.19179e+06)
(-1.80035e+07 0.0150562 5.07925e-10 2.61328e+07 -3.33367e-18 -1.19179e+06)
(-1.80035e+07 0.00133377 -5.03384e-10 2.61328e+07 3.56996e-18 -1.19179e+06)
(-1.80035e+07 0.00346444 2.53962e-10 2.61328e+07 -6.93888e-10 -1.19179e+06)
(-1.80035e+07 -0.000336646 2.50737e-10 2.61328e+07 -3.99207e-18 -1.19179e+06)
(-1.80035e+07 -0.00224909 -1.31572e-12 2.61328e+07 6.93888e-10 -1.19179e+06)
(-1.80035e+07 0.00595721 4.99565e-10 2.61328e+07 -4.1367e-19 -1.19179e+06)
(-1.80035e+07 -0.000706957 2.53962e-10 2.61328e+07 -6.93888e-10 -1.19179e+06)
(-1.80035e+07 -0.000684161 0 2.61328e+07 0 -1.19179e+06)
(-1.80035e+07 -0.00841189 1.00295e-09 2.61328e+07 -8.37154e-18 -1.19179e+06)
(-1.80035e+07 0.018778 2.53962e-10 2.61328e+07 6.93888e-10 -1.19179e+06)