/*--------------------------------*- C++ -*----------------------------------*\
| =========                 |                                                 |
| \\      /  F ield         | OpenFOAM: The Open Source CFD Toolbox           |
|  \\    /   O peration     | Version:  2312                                  |
|   \\  /    A nd           | Website:  www.openfoam.com                      |
|    \\/     M anipulation  |                                                 |
\*---------------------------------------------------------------------------*/
FoamFile
{
    version     2.0;
    format      ascii;
    arch        "LSB;label=32;scalar=64";
    class       volVectorField;
    location    "20";
    object      U;
}
// * * * * * * * * * * * * * * * * * * * * * * * * * * * * * * * * * * * * * //

dimensions      [0 1 -1 0 0 0 0];

internalField   nonuniform List<vector> 
12870
(
(0.0292412 0.000208785 0)
(0.0292353 0.000626314 0)
(0.0292233 0.00104371 0)
(0.0292055 0.0014609 0)
(0.0291816 0.00187779 0)
(0.0291518 0.0022943 0)
(0.0291161 0.00271034 0)
(0.0290744 0.00312583 0)
(0.0290268 0.00354067 0)
(0.0289733 0.0039548 0)
(0.0289139 0.00436812 0)
(0.0288486 0.00478055 0)
(0.0287774 0.00519201 0)
(0.0287003 0.0056024 0)
(0.0286174 0.00601166 0)
(0.0285286 0.00641969 0)
(0.028434 0.0068264 0)
(0.0283336 0.00723173 0)
(0.0282275 0.00763558 0)
(0.0281156 0.00803788 0)
(0.0279979 0.00843854 0)
(0.0278746 0.00883747 0)
(0.0277455 0.00923461 0)
(0.0276109 0.00962986 0)
(0.0274705 0.0100231 0)
(0.0273246 0.0104144 0)
(0.0271731 0.0108035 0)
(0.0270161 0.0111904 0)
(0.0268535 0.0115751 0)
(0.0266855 0.0119573 0)
(0.026512 0.0123372 0)
(0.0263332 0.0127145 0)
(0.0261489 0.0130892 0)
(0.0259593 0.0134613 0)
(0.0257645 0.0138306 0)
(0.0255644 0.0141971 0)
(0.025359 0.0145607 0)
(0.0251485 0.0149213 0)
(0.0249329 0.0152789 0)
(0.0247122 0.0156334 0)
(0.0244864 0.0159846 0)
(0.0242557 0.0163327 0)
(0.02402 0.0166774 0)
(0.0237794 0.0170187 0)
(0.0235339 0.0173565 0)
(0.0232837 0.0176908 0)
(0.0230287 0.0180214 0)
(0.022769 0.0183484 0)
(0.0225047 0.0186717 0)
(0.0222358 0.0189911 0)
(0.0219623 0.0193067 0)
(0.0216844 0.0196184 0)
(0.021402 0.019926 0)
(0.0211153 0.0202296 0)
(0.0208243 0.020529 0)
(0.020529 0.0208243 0)
(0.0202296 0.0211153 0)
(0.019926 0.021402 0)
(0.0196184 0.0216844 0)
(0.0193067 0.0219623 0)
(0.0189911 0.0222358 0)
(0.0186717 0.0225047 0)
(0.0183484 0.022769 0)
(0.0180214 0.0230287 0)
(0.0176908 0.0232837 0)
(0.0173565 0.0235339 0)
(0.0170187 0.0237794 0)
(0.0166774 0.02402 0)
(0.0163327 0.0242557 0)
(0.0159846 0.0244864 0)
(0.0156334 0.0247122 0)
(0.0152789 0.0249329 0)
(0.0149213 0.0251485 0)
(0.0145607 0.025359 0)
(0.0141971 0.0255644 0)
(0.0138306 0.0257645 0)
(0.0134613 0.0259593 0)
(0.0130892 0.0261489 0)
(0.0127145 0.0263332 0)
(0.0123372 0.026512 0)
(0.0119573 0.0266855 0)
(0.0115751 0.0268535 0)
(0.0111904 0.0270161 0)
(0.0108035 0.0271731 0)
(0.0104144 0.0273246 0)
(0.0100231 0.0274705 0)
(0.00962986 0.0276109 0)
(0.00923461 0.0277455 0)
(0.00883747 0.0278746 0)
(0.00843854 0.0279979 0)
(0.00803788 0.0281156 0)
(0.00763558 0.0282275 0)
(0.00723173 0.0283336 0)
(0.0068264 0.028434 0)
(0.00641969 0.0285286 0)
(0.00601166 0.0286174 0)
(0.0056024 0.0287003 0)
(0.00519201 0.0287774 0)
(0.00478055 0.0288486 0)
(0.00436812 0.0289139 0)
(0.0039548 0.0289733 0)
(0.00354067 0.0290268 0)
(0.00312583 0.0290744 0)
(0.00271034 0.0291161 0)
(0.0022943 0.0291518 0)
(0.00187779 0.0291816 0)
(0.0014609 0.0292055 0)
(0.00104371 0.0292233 0)
(0.000626314 0.0292353 0)
(0.000208785 0.0292412 0)
(0.0290044 0.000207095 0)
(0.0289985 0.000621241 0)
(0.0289867 0.00103526 0)
(0.0289689 0.00144907 0)
(0.0289453 0.00186258 0)
(0.0289157 0.00227572 0)
(0.0288803 0.00268839 0)
(0.028839 0.00310051 0)
(0.0287917 0.003512 0)
(0.0287387 0.00392277 0)
(0.0286797 0.00433274 0)
(0.0286149 0.00474183 0)
(0.0285443 0.00514996 0)
(0.0284678 0.00555703 0)
(0.0283856 0.00596297 0)
(0.0282975 0.00636769 0)
(0.0282037 0.00677112 0)
(0.0281042 0.00717316 0)
(0.0279989 0.00757374 0)
(0.0278879 0.00797278 0)
(0.0277712 0.00837019 0)
(0.0276488 0.0087659 0)
(0.0275208 0.00915981 0)
(0.0273872 0.00955186 0)
(0.027248 0.00994196 0)
(0.0271033 0.01033 0)
(0.026953 0.010716 0)
(0.0267973 0.0110998 0)
(0.026636 0.0114813 0)
(0.0264694 0.0118605 0)
(0.0262973 0.0122372 0)
(0.0261199 0.0126115 0)
(0.0259371 0.0129832 0)
(0.0257491 0.0133522 0)
(0.0255558 0.0137186 0)
(0.0253573 0.0140821 0)
(0.0251536 0.0144427 0)
(0.0249448 0.0148005 0)
(0.024731 0.0151551 0)
(0.024512 0.0155067 0)
(0.0242881 0.0158552 0)
(0.0240592 0.0162004 0)
(0.0238254 0.0165423 0)
(0.0235868 0.0168808 0)
(0.0233433 0.0172159 0)
(0.0230951 0.0175475 0)
(0.0228422 0.0178755 0)
(0.0225846 0.0181998 0)
(0.0223224 0.0185205 0)
(0.0220557 0.0188373 0)
(0.0217845 0.0191504 0)
(0.0215088 0.0194595 0)
(0.0212287 0.0197646 0)
(0.0209443 0.0200657 0)
(0.0206557 0.0203628 0)
(0.0203628 0.0206557 0)
(0.0200657 0.0209443 0)
(0.0197646 0.0212287 0)
(0.0194595 0.0215088 0)
(0.0191504 0.0217845 0)
(0.0188373 0.0220557 0)
(0.0185205 0.0223224 0)
(0.0181998 0.0225846 0)
(0.0178755 0.0228422 0)
(0.0175475 0.0230951 0)
(0.0172159 0.0233433 0)
(0.0168808 0.0235868 0)
(0.0165423 0.0238254 0)
(0.0162004 0.0240592 0)
(0.0158552 0.0242881 0)
(0.0155067 0.024512 0)
(0.0151551 0.024731 0)
(0.0148005 0.0249448 0)
(0.0144427 0.0251536 0)
(0.0140821 0.0253573 0)
(0.0137186 0.0255558 0)
(0.0133522 0.0257491 0)
(0.0129832 0.0259371 0)
(0.0126115 0.0261199 0)
(0.0122372 0.0262973 0)
(0.0118605 0.0264694 0)
(0.0114813 0.026636 0)
(0.0110998 0.0267973 0)
(0.010716 0.026953 0)
(0.01033 0.0271033 0)
(0.00994196 0.027248 0)
(0.00955186 0.0273872 0)
(0.00915981 0.0275208 0)
(0.0087659 0.0276488 0)
(0.00837019 0.0277712 0)
(0.00797278 0.0278879 0)
(0.00757374 0.0279989 0)
(0.00717316 0.0281042 0)
(0.00677112 0.0282037 0)
(0.00636769 0.0282975 0)
(0.00596297 0.0283856 0)
(0.00555703 0.0284678 0)
(0.00514996 0.0285443 0)
(0.00474183 0.0286149 0)
(0.00433274 0.0286797 0)
(0.00392277 0.0287387 0)
(0.003512 0.0287917 0)
(0.00310051 0.028839 0)
(0.00268839 0.0288803 0)
(0.00227572 0.0289157 0)
(0.00186258 0.0289453 0)
(0.00144907 0.0289689 0)
(0.00103526 0.0289867 0)
(0.000621241 0.0289985 0)
(0.000207095 0.0290044 0)
(0.0287775 0.000205475 0)
(0.0287717 0.000616382 0)
(0.0287599 0.00102716 0)
(0.0287423 0.00143774 0)
(0.0287189 0.00184801 0)
(0.0286896 0.00225792 0)
(0.0286544 0.00266736 0)
(0.0286134 0.00307626 0)
(0.0285665 0.00348453 0)
(0.0285139 0.00389209 0)
(0.0284554 0.00429885 0)
(0.0283911 0.00470474 0)
(0.028321 0.00510967 0)
(0.0282452 0.00551356 0)
(0.0281636 0.00591633 0)
(0.0280762 0.00631788 0)
(0.0279831 0.00671815 0)
(0.0278843 0.00711705 0)
(0.0277799 0.0075145 0)
(0.0276697 0.00791042 0)
(0.027554 0.00830472 0)
(0.0274326 0.00869733 0)
(0.0273056 0.00908817 0)
(0.027173 0.00947715 0)
(0.0270349 0.0098642 0)
(0.0268913 0.0102492 0)
(0.0267422 0.0106322 0)
(0.0265877 0.011013 0)
(0.0264277 0.0113915 0)
(0.0262623 0.0117677 0)
(0.0260916 0.0121415 0)
(0.0259156 0.0125129 0)
(0.0257343 0.0128816 0)
(0.0255477 0.0132478 0)
(0.0253559 0.0136113 0)
(0.025159 0.0139719 0)
(0.0249569 0.0143298 0)
(0.0247497 0.0146847 0)
(0.0245375 0.0150366 0)
(0.0243203 0.0153855 0)
(0.0240981 0.0157312 0)
(0.023871 0.0160737 0)
(0.0236391 0.0164129 0)
(0.0234023 0.0167488 0)
(0.0231607 0.0170812 0)
(0.0229145 0.0174102 0)
(0.0226635 0.0177357 0)
(0.022408 0.0180575 0)
(0.0221478 0.0183756 0)
(0.0218832 0.01869 0)
(0.0216141 0.0190006 0)
(0.0213405 0.0193073 0)
(0.0210627 0.01961 0)
(0.0207805 0.0199088 0)
(0.0204941 0.0202035 0)
(0.0202035 0.0204941 0)
(0.0199088 0.0207805 0)
(0.01961 0.0210627 0)
(0.0193073 0.0213405 0)
(0.0190006 0.0216141 0)
(0.01869 0.0218832 0)
(0.0183756 0.0221478 0)
(0.0180575 0.022408 0)
(0.0177357 0.0226635 0)
(0.0174102 0.0229145 0)
(0.0170812 0.0231607 0)
(0.0167488 0.0234023 0)
(0.0164129 0.0236391 0)
(0.0160737 0.023871 0)
(0.0157312 0.0240981 0)
(0.0153855 0.0243203 0)
(0.0150366 0.0245375 0)
(0.0146847 0.0247497 0)
(0.0143298 0.0249569 0)
(0.0139719 0.025159 0)
(0.0136113 0.0253559 0)
(0.0132478 0.0255477 0)
(0.0128816 0.0257343 0)
(0.0125129 0.0259156 0)
(0.0121415 0.0260916 0)
(0.0117677 0.0262623 0)
(0.0113915 0.0264277 0)
(0.011013 0.0265877 0)
(0.0106322 0.0267422 0)
(0.0102492 0.0268913 0)
(0.0098642 0.0270349 0)
(0.00947715 0.027173 0)
(0.00908817 0.0273056 0)
(0.00869733 0.0274326 0)
(0.00830472 0.027554 0)
(0.00791042 0.0276697 0)
(0.0075145 0.0277799 0)
(0.00711705 0.0278843 0)
(0.00671815 0.0279831 0)
(0.00631788 0.0280762 0)
(0.00591633 0.0281636 0)
(0.00551356 0.0282452 0)
(0.00510967 0.028321 0)
(0.00470474 0.0283911 0)
(0.00429885 0.0284554 0)
(0.00389209 0.0285139 0)
(0.00348453 0.0285665 0)
(0.00307626 0.0286134 0)
(0.00266736 0.0286544 0)
(0.00225792 0.0286896 0)
(0.00184801 0.0287189 0)
(0.00143774 0.0287423 0)
(0.00102716 0.0287599 0)
(0.000616382 0.0287717 0)
(0.000205475 0.0287775 0)
(0.0285549 0.000203885 0)
(0.028549 0.000611613 0)
(0.0285374 0.00101922 0)
(0.0285199 0.00142661 0)
(0.0284967 0.00183372 0)
(0.0284676 0.00224045 0)
(0.0284327 0.00264672 0)
(0.028392 0.00305245 0)
(0.0283455 0.00345757 0)
(0.0282932 0.00386197 0)
(0.0282352 0.00426559 0)
(0.0281714 0.00466834 0)
(0.0281019 0.00507014 0)
(0.0280266 0.0054709 0)
(0.0279456 0.00587055 0)
(0.027859 0.006269 0)
(0.0277666 0.00666617 0)
(0.0276686 0.00706198 0)
(0.0275649 0.00745636 0)
(0.0274556 0.00784921 0)
(0.0273408 0.00824046 0)
(0.0272203 0.00863003 0)
(0.0270943 0.00901784 0)
(0.0269628 0.00940382 0)
(0.0268257 0.00978787 0)
(0.0266832 0.0101699 0)
(0.0265353 0.0105499 0)
(0.0263819 0.0109278 0)
(0.0262232 0.0113034 0)
(0.0260591 0.0116767 0)
(0.0258897 0.0120476 0)
(0.0257151 0.012416 0)
(0.0255351 0.012782 0)
(0.02535 0.0131453 0)
(0.0251597 0.0135059 0)
(0.0249643 0.0138638 0)
(0.0247638 0.0142189 0)
(0.0245582 0.0145711 0)
(0.0243476 0.0149203 0)
(0.0241321 0.0152664 0)
(0.0239117 0.0156094 0)
(0.0236863 0.0159493 0)
(0.0234562 0.0162859 0)
(0.0232212 0.0166192 0)
(0.0229815 0.0169491 0)
(0.0227372 0.0172755 0)
(0.0224882 0.0175984 0)
(0.0222346 0.0179178 0)
(0.0219764 0.0182334 0)
(0.0217138 0.0185454 0)
(0.0214468 0.0188535 0)
(0.0211754 0.0191579 0)
(0.0208997 0.0194583 0)
(0.0206197 0.0197547 0)
(0.0203355 0.0200472 0)
(0.0200472 0.0203355 0)
(0.0197547 0.0206197 0)
(0.0194583 0.0208997 0)
(0.0191579 0.0211754 0)
(0.0188535 0.0214468 0)
(0.0185454 0.0217138 0)
(0.0182334 0.0219764 0)
(0.0179178 0.0222346 0)
(0.0175984 0.0224882 0)
(0.0172755 0.0227372 0)
(0.0169491 0.0229815 0)
(0.0166192 0.0232212 0)
(0.0162859 0.0234562 0)
(0.0159493 0.0236863 0)
(0.0156094 0.0239117 0)
(0.0152664 0.0241321 0)
(0.0149203 0.0243476 0)
(0.0145711 0.0245582 0)
(0.0142189 0.0247638 0)
(0.0138638 0.0249643 0)
(0.0135059 0.0251597 0)
(0.0131453 0.02535 0)
(0.012782 0.0255351 0)
(0.012416 0.0257151 0)
(0.0120476 0.0258897 0)
(0.0116767 0.0260591 0)
(0.0113034 0.0262232 0)
(0.0109278 0.0263819 0)
(0.0105499 0.0265353 0)
(0.0101699 0.0266832 0)
(0.00978787 0.0268257 0)
(0.00940382 0.0269628 0)
(0.00901784 0.0270943 0)
(0.00863003 0.0272203 0)
(0.00824046 0.0273408 0)
(0.00784921 0.0274556 0)
(0.00745636 0.0275649 0)
(0.00706198 0.0276686 0)
(0.00666617 0.0277666 0)
(0.006269 0.027859 0)
(0.00587055 0.0279456 0)
(0.0054709 0.0280266 0)
(0.00507014 0.0281019 0)
(0.00466834 0.0281714 0)
(0.00426559 0.0282352 0)
(0.00386197 0.0282932 0)
(0.00345757 0.0283455 0)
(0.00305245 0.028392 0)
(0.00264672 0.0284327 0)
(0.00224045 0.0284676 0)
(0.00183372 0.0284967 0)
(0.00142661 0.0285199 0)
(0.00101922 0.0285374 0)
(0.000611613 0.028549 0)
(0.000203885 0.0285549 0)
(0.0283393 0.000202345 0)
(0.0283335 0.000606995 0)
(0.0283219 0.00101152 0)
(0.0283046 0.00141584 0)
(0.0282815 0.00181987 0)
(0.0282526 0.00222353 0)
(0.028218 0.00262674 0)
(0.0281776 0.00302941 0)
(0.0281315 0.00343146 0)
(0.0280796 0.00383281 0)
(0.028022 0.00423338 0)
(0.0279587 0.00463309 0)
(0.0278897 0.00503186 0)
(0.027815 0.00542959 0)
(0.0277346 0.00582622 0)
(0.0276486 0.00622167 0)
(0.027557 0.00661584 0)
(0.0274597 0.00700866 0)
(0.0273568 0.00740006 0)
(0.0272483 0.00778995 0)
(0.0271343 0.00817824 0)
(0.0270148 0.00856487 0)
(0.0268897 0.00894976 0)
(0.0267592 0.00933282 0)
(0.0266232 0.00971397 0)
(0.0264818 0.0100931 0)
(0.0263349 0.0104703 0)
(0.0261827 0.0108452 0)
(0.0260252 0.011218 0)
(0.0258624 0.0115885 0)
(0.0256942 0.0119566 0)
(0.0255209 0.0123223 0)
(0.0253423 0.0126855 0)
(0.0251586 0.013046 0)
(0.0249698 0.013404 0)
(0.0247758 0.0137592 0)
(0.0245768 0.0141115 0)
(0.0243728 0.014461 0)
(0.0241638 0.0148076 0)
(0.0239499 0.0151511 0)
(0.0237311 0.0154916 0)
(0.0235075 0.0158289 0)
(0.0232791 0.0161629 0)
(0.0230459 0.0164937 0)
(0.022808 0.0168211 0)
(0.0225655 0.0171451 0)
(0.0223184 0.0174656 0)
(0.0220667 0.0177825 0)
(0.0218105 0.0180958 0)
(0.0215499 0.0184054 0)
(0.0212849 0.0187112 0)
(0.0210155 0.0190132 0)
(0.0207419 0.0193114 0)
(0.020464 0.0196056 0)
(0.020182 0.0198958 0)
(0.0198958 0.020182 0)
(0.0196056 0.020464 0)
(0.0193114 0.0207419 0)
(0.0190132 0.0210155 0)
(0.0187112 0.0212849 0)
(0.0184054 0.0215499 0)
(0.0180958 0.0218105 0)
(0.0177825 0.0220667 0)
(0.0174656 0.0223184 0)
(0.0171451 0.0225655 0)
(0.0168211 0.022808 0)
(0.0164937 0.0230459 0)
(0.0161629 0.0232791 0)
(0.0158289 0.0235075 0)
(0.0154916 0.0237311 0)
(0.0151511 0.0239499 0)
(0.0148076 0.0241638 0)
(0.014461 0.0243728 0)
(0.0141115 0.0245768 0)
(0.0137592 0.0247758 0)
(0.013404 0.0249698 0)
(0.013046 0.0251586 0)
(0.0126855 0.0253423 0)
(0.0123223 0.0255209 0)
(0.0119566 0.0256942 0)
(0.0115885 0.0258624 0)
(0.011218 0.0260252 0)
(0.0108452 0.0261827 0)
(0.0104703 0.0263349 0)
(0.0100931 0.0264818 0)
(0.00971397 0.0266232 0)
(0.00933282 0.0267592 0)
(0.00894976 0.0268897 0)
(0.00856487 0.0270148 0)
(0.00817824 0.0271343 0)
(0.00778995 0.0272483 0)
(0.00740006 0.0273568 0)
(0.00700866 0.0274597 0)
(0.00661584 0.027557 0)
(0.00622167 0.0276486 0)
(0.00582622 0.0277346 0)
(0.00542959 0.027815 0)
(0.00503186 0.0278897 0)
(0.00463309 0.0279587 0)
(0.00423338 0.028022 0)
(0.00383281 0.0280796 0)
(0.00343146 0.0281315 0)
(0.00302941 0.0281776 0)
(0.00262674 0.028218 0)
(0.00222353 0.0282526 0)
(0.00181987 0.0282815 0)
(0.00141584 0.0283046 0)
(0.00101152 0.0283219 0)
(0.000606995 0.0283335 0)
(0.000202345 0.0283393 0)
(0.0281289 0.000200843 0)
(0.0281232 0.000602489 0)
(0.0281117 0.00100401 0)
(0.0280945 0.00140533 0)
(0.0280716 0.00180636 0)
(0.0280429 0.00220703 0)
(0.0280085 0.00260724 0)
(0.0279685 0.00300692 0)
(0.0279227 0.00340599 0)
(0.0278712 0.00380436 0)
(0.027814 0.00420196 0)
(0.0277512 0.0045987 0)
(0.0276827 0.00499451 0)
(0.0276085 0.00538929 0)
(0.0275288 0.00578298 0)
(0.0274434 0.00617549 0)
(0.0273524 0.00656673 0)
(0.0272559 0.00695664 0)
(0.0271537 0.00734513 0)
(0.0270461 0.00773212 0)
(0.0269329 0.00811754 0)
(0.0268143 0.0085013 0)
(0.0266901 0.00888333 0)
(0.0265606 0.00926354 0)
(0.0264256 0.00964187 0)
(0.0262852 0.0100182 0)
(0.0261395 0.0103925 0)
(0.0259884 0.0107647 0)
(0.025832 0.0111347 0)
(0.0256704 0.0115025 0)
(0.0255035 0.0118679 0)
(0.0253315 0.0122308 0)
(0.0251542 0.0125913 0)
(0.0249719 0.0129492 0)
(0.0247844 0.0133045 0)
(0.0245919 0.013657 0)
(0.0243944 0.0140068 0)
(0.0241919 0.0143537 0)
(0.0239845 0.0146977 0)
(0.0237721 0.0150387 0)
(0.023555 0.0153766 0)
(0.023333 0.0157114 0)
(0.0231063 0.016043 0)
(0.0228748 0.0163713 0)
(0.0226387 0.0166962 0)
(0.022398 0.0170178 0)
(0.0221527 0.0173359 0)
(0.0219029 0.0176505 0)
(0.0216486 0.0179614 0)
(0.0213899 0.0182687 0)
(0.0211269 0.0185723 0)
(0.0208595 0.0188721 0)
(0.0205879 0.019168 0)
(0.0203121 0.0194601 0)
(0.0200322 0.0197481 0)
(0.0197481 0.0200322 0)
(0.0194601 0.0203121 0)
(0.019168 0.0205879 0)
(0.0188721 0.0208595 0)
(0.0185723 0.0211269 0)
(0.0182687 0.0213899 0)
(0.0179614 0.0216486 0)
(0.0176505 0.0219029 0)
(0.0173359 0.0221527 0)
(0.0170178 0.022398 0)
(0.0166962 0.0226387 0)
(0.0163713 0.0228748 0)
(0.016043 0.0231063 0)
(0.0157114 0.023333 0)
(0.0153766 0.023555 0)
(0.0150387 0.0237721 0)
(0.0146977 0.0239845 0)
(0.0143537 0.0241919 0)
(0.0140068 0.0243944 0)
(0.013657 0.0245919 0)
(0.0133045 0.0247844 0)
(0.0129492 0.0249719 0)
(0.0125913 0.0251542 0)
(0.0122308 0.0253315 0)
(0.0118679 0.0255035 0)
(0.0115025 0.0256704 0)
(0.0111347 0.025832 0)
(0.0107647 0.0259884 0)
(0.0103925 0.0261395 0)
(0.0100182 0.0262852 0)
(0.00964187 0.0264256 0)
(0.00926354 0.0265606 0)
(0.00888333 0.0266901 0)
(0.0085013 0.0268143 0)
(0.00811754 0.0269329 0)
(0.00773212 0.0270461 0)
(0.00734513 0.0271537 0)
(0.00695664 0.0272559 0)
(0.00656673 0.0273524 0)
(0.00617549 0.0274434 0)
(0.00578298 0.0275288 0)
(0.00538929 0.0276085 0)
(0.00499451 0.0276827 0)
(0.0045987 0.0277512 0)
(0.00420196 0.027814 0)
(0.00380436 0.0278712 0)
(0.00340599 0.0279227 0)
(0.00300692 0.0279685 0)
(0.00260724 0.0280085 0)
(0.00220703 0.0280429 0)
(0.00180636 0.0280716 0)
(0.00140533 0.0280945 0)
(0.00100401 0.0281117 0)
(0.000602489 0.0281232 0)
(0.000200843 0.0281289 0)
(0.0279246 0.000199384 0)
(0.0279189 0.000598112 0)
(0.0279075 0.000996718 0)
(0.0278904 0.00139512 0)
(0.0278676 0.00179324 0)
(0.0278392 0.00219099 0)
(0.0278051 0.0025883 0)
(0.0277653 0.00298507 0)
(0.0277198 0.00338124 0)
(0.0276687 0.00377672 0)
(0.0276119 0.00417143 0)
(0.0275496 0.00456529 0)
(0.0274816 0.00495822 0)
(0.027408 0.00535014 0)
(0.0273288 0.00574096 0)
(0.027244 0.00613062 0)
(0.0271537 0.00651902 0)
(0.0270578 0.0069061 0)
(0.0269565 0.00729177 0)
(0.0268496 0.00767595 0)
(0.0267372 0.00805856 0)
(0.0266194 0.00843954 0)
(0.0264962 0.00881879 0)
(0.0263676 0.00919624 0)
(0.0262336 0.00957182 0)
(0.0260942 0.00994545 0)
(0.0259496 0.010317 0)
(0.0257996 0.0106865 0)
(0.0256444 0.0110539 0)
(0.0254839 0.0114189 0)
(0.0253182 0.0117816 0)
(0.0251474 0.012142 0)
(0.0249715 0.0124998 0)
(0.0247904 0.0128551 0)
(0.0246044 0.0132078 0)
(0.0244132 0.0135578 0)
(0.0242172 0.013905 0)
(0.0240161 0.0142494 0)
(0.0238102 0.0145909 0)
(0.0235994 0.0149294 0)
(0.0233838 0.0152649 0)
(0.0231635 0.0155972 0)
(0.0229384 0.0159264 0)
(0.0227086 0.0162523 0)
(0.0224742 0.0165749 0)
(0.0222353 0.0168942 0)
(0.0219918 0.01721 0)
(0.0217438 0.0175222 0)
(0.0214913 0.0178309 0)
(0.0212345 0.018136 0)
(0.0209734 0.0184374 0)
(0.020708 0.018735 0)
(0.0204384 0.0190288 0)
(0.0201645 0.0193187 0)
(0.0198866 0.0196047 0)
(0.0196047 0.0198866 0)
(0.0193187 0.0201645 0)
(0.0190288 0.0204384 0)
(0.018735 0.020708 0)
(0.0184374 0.0209734 0)
(0.018136 0.0212345 0)
(0.0178309 0.0214913 0)
(0.0175222 0.0217438 0)
(0.01721 0.0219918 0)
(0.0168942 0.0222353 0)
(0.0165749 0.0224742 0)
(0.0162523 0.0227086 0)
(0.0159264 0.0229384 0)
(0.0155972 0.0231635 0)
(0.0152649 0.0233838 0)
(0.0149294 0.0235994 0)
(0.0145909 0.0238102 0)
(0.0142494 0.0240161 0)
(0.013905 0.0242172 0)
(0.0135578 0.0244132 0)
(0.0132078 0.0246044 0)
(0.0128551 0.0247904 0)
(0.0124998 0.0249715 0)
(0.012142 0.0251474 0)
(0.0117816 0.0253182 0)
(0.0114189 0.0254839 0)
(0.0110539 0.0256444 0)
(0.0106865 0.0257996 0)
(0.010317 0.0259496 0)
(0.00994545 0.0260942 0)
(0.00957182 0.0262336 0)
(0.00919624 0.0263676 0)
(0.00881879 0.0264962 0)
(0.00843954 0.0266194 0)
(0.00805856 0.0267372 0)
(0.00767595 0.0268496 0)
(0.00729177 0.0269565 0)
(0.0069061 0.0270578 0)
(0.00651902 0.0271537 0)
(0.00613062 0.027244 0)
(0.00574096 0.0273288 0)
(0.00535014 0.027408 0)
(0.00495822 0.0274816 0)
(0.00456529 0.0275496 0)
(0.00417143 0.0276119 0)
(0.00377672 0.0276687 0)
(0.00338124 0.0277198 0)
(0.00298507 0.0277653 0)
(0.0025883 0.0278051 0)
(0.00219099 0.0278392 0)
(0.00179324 0.0278676 0)
(0.00139512 0.0278904 0)
(0.000996718 0.0279075 0)
(0.000598112 0.0279189 0)
(0.000199384 0.0279246 0)
(0.0277255 0.000197963 0)
(0.0277199 0.000593849 0)
(0.0277086 0.000989614 0)
(0.0276916 0.00138518 0)
(0.027669 0.00178046 0)
(0.0276408 0.00217538 0)
(0.0276069 0.00256985 0)
(0.0275674 0.0029638 0)
(0.0275222 0.00335715 0)
(0.0274715 0.00374981 0)
(0.0274152 0.0041417 0)
(0.0273532 0.00453276 0)
(0.0272857 0.00492288 0)
(0.0272126 0.00531201 0)
(0.027134 0.00570005 0)
(0.0270498 0.00608693 0)
(0.0269602 0.00647256 0)
(0.026865 0.00685688 0)
(0.0267643 0.0072398 0)
(0.0266582 0.00762124 0)
(0.0265467 0.00800113 0)
(0.0264297 0.00837939 0)
(0.0263074 0.00875594 0)
(0.0261797 0.0091307 0)
(0.0260466 0.0095036 0)
(0.0259083 0.00987456 0)
(0.0257646 0.0102435 0)
(0.0256157 0.0106104 0)
(0.0254616 0.0109751 0)
(0.0253023 0.0113375 0)
(0.0251378 0.0116977 0)
(0.0249682 0.0120554 0)
(0.0247935 0.0124107 0)
(0.0246138 0.0127635 0)
(0.024429 0.0131137 0)
(0.0242392 0.0134612 0)
(0.0240446 0.0138059 0)
(0.023845 0.0141479 0)
(0.0236405 0.0144869 0)
(0.0234312 0.014823 0)
(0.0232172 0.0151561 0)
(0.0229984 0.0154861 0)
(0.0227749 0.0158129 0)
(0.0225468 0.0161365 0)
(0.0223141 0.0164568 0)
(0.0220768 0.0167738 0)
(0.021835 0.0170873 0)
(0.0215888 0.0173974 0)
(0.0213382 0.0177039 0)
(0.0210832 0.0180068 0)
(0.0208239 0.018306 0)
(0.0205604 0.0186015 0)
(0.0202927 0.0188932 0)
(0.0200208 0.019181 0)
(0.0197449 0.0194649 0)
(0.0194649 0.0197449 0)
(0.019181 0.0200208 0)
(0.0188932 0.0202927 0)
(0.0186015 0.0205604 0)
(0.018306 0.0208239 0)
(0.0180068 0.0210832 0)
(0.0177039 0.0213382 0)
(0.0173974 0.0215888 0)
(0.0170873 0.021835 0)
(0.0167738 0.0220768 0)
(0.0164568 0.0223141 0)
(0.0161365 0.0225468 0)
(0.0158129 0.0227749 0)
(0.0154861 0.0229984 0)
(0.0151561 0.0232172 0)
(0.014823 0.0234312 0)
(0.0144869 0.0236405 0)
(0.0141479 0.023845 0)
(0.0138059 0.0240446 0)
(0.0134612 0.0242392 0)
(0.0131137 0.024429 0)
(0.0127635 0.0246138 0)
(0.0124107 0.0247935 0)
(0.0120554 0.0249682 0)
(0.0116977 0.0251378 0)
(0.0113375 0.0253023 0)
(0.0109751 0.0254616 0)
(0.0106104 0.0256157 0)
(0.0102435 0.0257646 0)
(0.00987456 0.0259083 0)
(0.0095036 0.0260466 0)
(0.0091307 0.0261797 0)
(0.00875594 0.0263074 0)
(0.00837939 0.0264297 0)
(0.00800113 0.0265467 0)
(0.00762124 0.0266582 0)
(0.0072398 0.0267643 0)
(0.00685688 0.026865 0)
(0.00647256 0.0269602 0)
(0.00608693 0.0270498 0)
(0.00570005 0.027134 0)
(0.00531201 0.0272126 0)
(0.00492288 0.0272857 0)
(0.00453276 0.0273532 0)
(0.0041417 0.0274152 0)
(0.00374981 0.0274715 0)
(0.00335715 0.0275222 0)
(0.0029638 0.0275674 0)
(0.00256985 0.0276069 0)
(0.00217538 0.0276408 0)
(0.00178046 0.027669 0)
(0.00138518 0.0276916 0)
(0.000989614 0.0277086 0)
(0.000593849 0.0277199 0)
(0.000197963 0.0277255 0)
(0.027532 0.000196581 0)
(0.0275264 0.000589703 0)
(0.0275151 0.000982705 0)
(0.0274983 0.00137551 0)
(0.0274758 0.00176803 0)
(0.0274478 0.00216019 0)
(0.0274142 0.00255191 0)
(0.0273749 0.00294311 0)
(0.0273301 0.00333371 0)
(0.0272797 0.00372363 0)
(0.0272238 0.00411279 0)
(0.0271623 0.00450111 0)
(0.0270952 0.00488851 0)
(0.0270226 0.00527492 0)
(0.0269446 0.00566025 0)
(0.026861 0.00604443 0)
(0.0267719 0.00642738 0)
(0.0266774 0.00680901 0)
(0.0265775 0.00718926 0)
(0.0264721 0.00756804 0)
(0.0263614 0.00794527 0)
(0.0262452 0.00832089 0)
(0.0261237 0.00869481 0)
(0.0259969 0.00906695 0)
(0.0258648 0.00943725 0)
(0.0257274 0.00980563 0)
(0.0255847 0.010172 0)
(0.0254369 0.0105363 0)
(0.0252838 0.0108984 0)
(0.0251256 0.0112584 0)
(0.0249623 0.011616 0)
(0.0247939 0.0119713 0)
(0.0246204 0.0123241 0)
(0.0244419 0.0126744 0)
(0.0242584 0.0130221 0)
(0.02407 0.0133672 0)
(0.0238767 0.0137096 0)
(0.0236785 0.0140491 0)
(0.0234755 0.0143858 0)
(0.0232676 0.0147195 0)
(0.0230551 0.0150503 0)
(0.0228378 0.015378 0)
(0.0226159 0.0157025 0)
(0.0223894 0.0160239 0)
(0.0221583 0.0163419 0)
(0.0219227 0.0166567 0)
(0.0216826 0.016968 0)
(0.0214381 0.0172759 0)
(0.0211892 0.0175803 0)
(0.020936 0.017881 0)
(0.0206785 0.0181782 0)
(0.0204169 0.0184716 0)
(0.020151 0.0187613 0)
(0.0198811 0.0190471 0)
(0.019607 0.019329 0)
(0.019329 0.019607 0)
(0.0190471 0.0198811 0)
(0.0187613 0.020151 0)
(0.0184716 0.0204169 0)
(0.0181782 0.0206785 0)
(0.017881 0.020936 0)
(0.0175803 0.0211892 0)
(0.0172759 0.0214381 0)
(0.016968 0.0216826 0)
(0.0166567 0.0219227 0)
(0.0163419 0.0221583 0)
(0.0160239 0.0223894 0)
(0.0157025 0.0226159 0)
(0.015378 0.0228378 0)
(0.0150503 0.0230551 0)
(0.0147195 0.0232676 0)
(0.0143858 0.0234755 0)
(0.0140491 0.0236785 0)
(0.0137096 0.0238767 0)
(0.0133672 0.02407 0)
(0.0130221 0.0242584 0)
(0.0126744 0.0244419 0)
(0.0123241 0.0246204 0)
(0.0119713 0.0247939 0)
(0.011616 0.0249623 0)
(0.0112584 0.0251256 0)
(0.0108984 0.0252838 0)
(0.0105363 0.0254369 0)
(0.010172 0.0255847 0)
(0.00980563 0.0257274 0)
(0.00943725 0.0258648 0)
(0.00906695 0.0259969 0)
(0.00869481 0.0261237 0)
(0.00832089 0.0262452 0)
(0.00794527 0.0263614 0)
(0.00756804 0.0264721 0)
(0.00718926 0.0265775 0)
(0.00680901 0.0266774 0)
(0.00642738 0.0267719 0)
(0.00604443 0.026861 0)
(0.00566025 0.0269446 0)
(0.00527492 0.0270226 0)
(0.00488851 0.0270952 0)
(0.00450111 0.0271623 0)
(0.00411279 0.0272238 0)
(0.00372363 0.0272797 0)
(0.00333371 0.0273301 0)
(0.00294311 0.0273749 0)
(0.00255191 0.0274142 0)
(0.00216019 0.0274478 0)
(0.00176803 0.0274758 0)
(0.00137551 0.0274983 0)
(0.000982705 0.0275151 0)
(0.000589703 0.0275264 0)
(0.000196581 0.027532 0)
(0.0273436 0.000195236 0)
(0.027338 0.000585668 0)
(0.0273268 0.000975981 0)
(0.0273101 0.00136609 0)
(0.0272878 0.00175593 0)
(0.02726 0.00214541 0)
(0.0272266 0.00253445 0)
(0.0271876 0.00292297 0)
(0.0271431 0.0033109 0)
(0.027093 0.00369815 0)
(0.0270375 0.00408464 0)
(0.0269764 0.00447031 0)
(0.0269098 0.00485506 0)
(0.0268377 0.00523883 0)
(0.0267602 0.00562152 0)
(0.0266772 0.00600307 0)
(0.0265887 0.00638339 0)
(0.0264949 0.00676242 0)
(0.0263956 0.00714006 0)
(0.026291 0.00751625 0)
(0.026181 0.0078909 0)
(0.0260656 0.00826395 0)
(0.025945 0.00863531 0)
(0.025819 0.00900491 0)
(0.0256878 0.00937267 0)
(0.0255513 0.00973853 0)
(0.0254097 0.0101024 0)
(0.0252628 0.0104642 0)
(0.0251108 0.0108239 0)
(0.0249537 0.0111813 0)
(0.0247915 0.0115365 0)
(0.0246242 0.0118894 0)
(0.0244519 0.0122398 0)
(0.0242747 0.0125877 0)
(0.0240924 0.012933 0)
(0.0239053 0.0132757 0)
(0.0237133 0.0136157 0)
(0.0235165 0.013953 0)
(0.0233148 0.0142873 0)
(0.0231084 0.0146188 0)
(0.0228973 0.0149473 0)
(0.0226816 0.0152727 0)
(0.0224612 0.0155951 0)
(0.0222362 0.0159142 0)
(0.0220067 0.0162301 0)
(0.0217727 0.0165427 0)
(0.0215342 0.0168519 0)
(0.0212914 0.0171577 0)
(0.0210442 0.01746 0)
(0.0207927 0.0177587 0)
(0.020537 0.0180538 0)
(0.0202771 0.0183452 0)
(0.0200131 0.0186329 0)
(0.019745 0.0189168 0)
(0.0194729 0.0191968 0)
(0.0191968 0.0194729 0)
(0.0189168 0.019745 0)
(0.0186329 0.0200131 0)
(0.0183452 0.0202771 0)
(0.0180538 0.020537 0)
(0.0177587 0.0207927 0)
(0.01746 0.0210442 0)
(0.0171577 0.0212914 0)
(0.0168519 0.0215342 0)
(0.0165427 0.0217727 0)
(0.0162301 0.0220067 0)
(0.0159142 0.0222362 0)
(0.0155951 0.0224612 0)
(0.0152727 0.0226816 0)
(0.0149473 0.0228973 0)
(0.0146188 0.0231084 0)
(0.0142873 0.0233148 0)
(0.013953 0.0235165 0)
(0.0136157 0.0237133 0)
(0.0132757 0.0239053 0)
(0.012933 0.0240924 0)
(0.0125877 0.0242747 0)
(0.0122398 0.0244519 0)
(0.0118894 0.0246242 0)
(0.0115365 0.0247915 0)
(0.0111813 0.0249537 0)
(0.0108239 0.0251108 0)
(0.0104642 0.0252628 0)
(0.0101024 0.0254097 0)
(0.00973853 0.0255513 0)
(0.00937267 0.0256878 0)
(0.00900491 0.025819 0)
(0.00863531 0.025945 0)
(0.00826395 0.0260656 0)
(0.0078909 0.026181 0)
(0.00751625 0.026291 0)
(0.00714006 0.0263956 0)
(0.00676242 0.0264949 0)
(0.00638339 0.0265887 0)
(0.00600307 0.0266772 0)
(0.00562152 0.0267602 0)
(0.00523883 0.0268377 0)
(0.00485506 0.0269098 0)
(0.00447031 0.0269764 0)
(0.00408464 0.0270375 0)
(0.00369815 0.027093 0)
(0.0033109 0.0271431 0)
(0.00292297 0.0271876 0)
(0.00253445 0.0272266 0)
(0.00214541 0.02726 0)
(0.00175593 0.0272878 0)
(0.00136609 0.0273101 0)
(0.000975981 0.0273268 0)
(0.000585668 0.027338 0)
(0.000195236 0.0273436 0)
(0.0271603 0.000193927 0)
(0.0271547 0.000581742 0)
(0.0271437 0.000969438 0)
(0.027127 0.00135694 0)
(0.0271049 0.00174416 0)
(0.0270772 0.00213102 0)
(0.027044 0.00251746 0)
(0.0270053 0.00290337 0)
(0.0269611 0.0032887 0)
(0.0269114 0.00367336 0)
(0.0268562 0.00405726 0)
(0.0267955 0.00444034 0)
(0.0267294 0.00482252 0)
(0.0266578 0.00520371 0)
(0.0265808 0.00558384 0)
(0.0264984 0.00596283 0)
(0.0264105 0.0063406 0)
(0.0263173 0.00671708 0)
(0.0262187 0.00709219 0)
(0.0261147 0.00746586 0)
(0.0260055 0.007838 0)
(0.0258909 0.00820855 0)
(0.025771 0.00857742 0)
(0.0256459 0.00894454 0)
(0.0255156 0.00930984 0)
(0.02538 0.00967324 0)
(0.0252393 0.0100347 0)
(0.0250935 0.0103941 0)
(0.0249425 0.0107513 0)
(0.0247864 0.0111064 0)
(0.0246253 0.0114592 0)
(0.0244591 0.0118097 0)
(0.024288 0.0121577 0)
(0.0241119 0.0125033 0)
(0.0239309 0.0128463 0)
(0.0237451 0.0131867 0)
(0.0235543 0.0135245 0)
(0.0233588 0.0138594 0)
(0.0231585 0.0141916 0)
(0.0229535 0.0145208 0)
(0.0227438 0.0148471 0)
(0.0225295 0.0151703 0)
(0.0223106 0.0154905 0)
(0.0220871 0.0158075 0)
(0.0218591 0.0161213 0)
(0.0216267 0.0164318 0)
(0.0213899 0.0167389 0)
(0.0211487 0.0170427 0)
(0.0209031 0.0173429 0)
(0.0206534 0.0176396 0)
(0.0203994 0.0179328 0)
(0.0201412 0.0182222 0)
(0.019879 0.018508 0)
(0.0196126 0.0187899 0)
(0.0193423 0.0190681 0)
(0.0190681 0.0193423 0)
(0.0187899 0.0196126 0)
(0.018508 0.019879 0)
(0.0182222 0.0201412 0)
(0.0179328 0.0203994 0)
(0.0176396 0.0206534 0)
(0.0173429 0.0209031 0)
(0.0170427 0.0211487 0)
(0.0167389 0.0213899 0)
(0.0164318 0.0216267 0)
(0.0161213 0.0218591 0)
(0.0158075 0.0220871 0)
(0.0154905 0.0223106 0)
(0.0151703 0.0225295 0)
(0.0148471 0.0227438 0)
(0.0145208 0.0229535 0)
(0.0141916 0.0231585 0)
(0.0138594 0.0233588 0)
(0.0135245 0.0235543 0)
(0.0131867 0.0237451 0)
(0.0128463 0.0239309 0)
(0.0125033 0.0241119 0)
(0.0121577 0.024288 0)
(0.0118097 0.0244591 0)
(0.0114592 0.0246253 0)
(0.0111064 0.0247864 0)
(0.0107513 0.0249425 0)
(0.0103941 0.0250935 0)
(0.0100347 0.0252393 0)
(0.00967324 0.02538 0)
(0.00930984 0.0255156 0)
(0.00894454 0.0256459 0)
(0.00857742 0.025771 0)
(0.00820855 0.0258909 0)
(0.007838 0.0260055 0)
(0.00746586 0.0261147 0)
(0.00709219 0.0262187 0)
(0.00671708 0.0263173 0)
(0.0063406 0.0264105 0)
(0.00596283 0.0264984 0)
(0.00558384 0.0265808 0)
(0.00520371 0.0266578 0)
(0.00482252 0.0267294 0)
(0.00444034 0.0267955 0)