/*--------------------------------*- C++ -*----------------------------------*\
| =========                 |                                                 |
| \\      /  F ield         | OpenFOAM: The Open Source CFD Toolbox           |
|  \\    /   O peration     | Version:  2312                                  |
|   \\  /    A nd           | Website:  www.openfoam.com                      |
|    \\/     M anipulation  |                                                 |
\*---------------------------------------------------------------------------*/
FoamFile
{
    version     2.0;
    format      ascii;
    arch        "LSB;label=32;scalar=64";
    class       volTensorField;
    location    "90";
    object      F;
}
// * * * * * * * * * * * * * * * * * * * * * * * * * * * * * * * * * * * * * //

dimensions      [0 0 0 0 0 0 0];

internalField   nonuniform List<tensor> 
12870
(
(0.774976 -0.00627102 1.67501e-19 -0.00627102 1.65321 -3.57905e-17 0 0 1)
(0.775335 -0.0188079 -1.28788e-17 -0.0188079 1.65285 1.76236e-17 0 0 1)
(0.776051 -0.0313295 1.76121e-17 -0.0313295 1.65214 3.64427e-17 0 0 1)
(0.777124 -0.0438256 9.38006e-19 -0.0438256 1.65107 -1.78709e-17 0 0 1)
(0.778554 -0.0562858 -7.45133e-18 -0.0562859 1.64964 1.74529e-17 0 0 1)
(0.780338 -0.0687002 1.89311e-17 -0.0687002 1.64785 1.48991e-18 0 0 1)
(0.782477 -0.0810586 -4.62935e-18 -0.0810586 1.64571 -1.84037e-17 0 0 1)
(0.784968 -0.0933508 1.07764e-17 -0.0933508 1.64322 1.91571e-17 0 0 1)
(0.787809 -0.105567 -4.33362e-18 -0.105567 1.64038 3.55275e-17 0 0 1)
(0.790997 -0.117697 1.01377e-17 -0.117697 1.63719 1.94451e-17 0 0 1)
(0.794531 -0.129731 1.52054e-17 -0.129731 1.63366 -1.58013e-17 0 0 1)
(0.798406 -0.141659 1.78892e-17 -0.141659 1.62978 -6.95934e-17 0 0 1)
(0.802621 -0.153472 -2.47728e-17 -0.153472 1.62557 -4.4695e-18 0 0 1)
(0.807171 -0.165159 -6.50066e-18 -0.165159 1.62102 -1.26895e-18 0 0 1)
(0.812054 -0.176712 -8.55237e-18 -0.176712 1.61614 -2.00826e-17 0 0 1)
(0.817264 -0.188121 -2.42372e-17 -0.188121 1.61093 4.95747e-17 0 0 1)
(0.822798 -0.199376 -4.22041e-18 -0.199376 1.60539 1.73907e-17 0 0 1)
(0.828651 -0.210468 6.16169e-18 -0.210468 1.59954 1.57268e-18 0 0 1)
(0.834818 -0.221389 1.07689e-17 -0.221389 1.59337 -1.56256e-17 0 0 1)
(0.841295 -0.23213 4.96132e-18 -0.23213 1.58689 -1.7194e-17 0 0 1)
(0.848075 -0.242681 0 -0.242681 1.58011 0 0 0 1)
(0.855155 -0.253034 -1.14282e-17 -0.253034 1.57303 1.515e-17 0 0 1)
(0.862527 -0.263181 -1.13027e-17 -0.263181 1.56566 3.39593e-17 0 0 1)
(0.870185 -0.273113 1.17731e-17 -0.273113 1.558 -1.48465e-17 0 0 1)
(0.878125 -0.282822 6.37659e-18 -0.282822 1.55006 -3.57722e-17 0 0 1)
(0.886338 -0.292301 -7.79946e-19 -0.292301 1.54185 3.8005e-17 0 0 1)
(0.894818 -0.301541 2.47962e-17 -0.301541 1.53337 -2.86574e-17 0 0 1)
(0.90356 -0.310535 2.19027e-18 -0.310535 1.52463 -3.78325e-17 0 0 1)
(0.912554 -0.319276 -6.00152e-18 -0.319276 1.51564 -2.58692e-18 0 0 1)
(0.921794 -0.327757 -3.1804e-17 -0.327757 1.5064 2.49688e-17 0 0 1)
(0.931273 -0.33597 -1.88288e-17 -0.33597 1.49692 7.01906e-17 0 0 1)
(0.940982 -0.343909 1.54827e-17 -0.343909 1.48721 -3.22688e-17 0 0 1)
(0.950914 -0.351568 2.44182e-18 -0.351568 1.47728 -1.87899e-17 0 0 1)
(0.961061 -0.35894 -1.39224e-17 -0.35894 1.46713 1.29388e-17 0 0 1)
(0.971414 -0.366019 1.40282e-17 -0.366019 1.45678 -1.27804e-17 0 0 1)
(0.981965 -0.3728 3.16731e-18 -0.3728 1.44622 -1.87108e-17 0 0 1)
(0.992705 -0.379277 1.77452e-17 -0.379277 1.43548 -3.10821e-17 0 0 1)
(1.00363 -0.385444 7.40066e-18 -0.385444 1.42456 -3.72255e-17 0 0 1)
(1.01472 -0.391297 -4.03141e-17 -0.391297 1.41347 1.7272e-17 0 0 1)
(1.02597 -0.396831 -4.90173e-17 -0.396831 1.40222 5.36936e-17 0 0 1)
(1.03738 -0.402041 1.05026e-17 -0.402041 1.39081 6.85607e-18 0 0 1)
(1.04894 -0.406923 1.46064e-19 -0.406923 1.37925 9.83527e-20 0 0 1)
(1.06062 -0.411474 -1.00374e-17 -0.411474 1.36757 3.66027e-17 0 0 1)
(1.07244 -0.415688 2.07584e-17 -0.415688 1.35575 -2.91561e-17 0 0 1)
(1.08436 -0.419564 -4.97618e-18 -0.419564 1.34383 -3.66998e-18 0 0 1)
(1.0964 -0.423098 -1.15958e-17 -0.423098 1.33179 3.61393e-17 0 0 1)
(1.10853 -0.426286 0 -0.426286 1.31966 0 0 0 1)
(1.12074 -0.429127 2.73406e-17 -0.429127 1.30745 -2.39333e-17 0 0 1)
(1.13304 -0.431617 4.57066e-17 -0.431617 1.29515 -5.50894e-17 0 0 1)
(1.14539 -0.433756 8.80446e-18 -0.433756 1.28279 -3.95483e-17 0 0 1)
(1.15781 -0.435541 -1.43284e-17 -0.435541 1.27038 -1.25958e-17 0 0 1)
(1.17027 -0.436971 -5.00671e-17 -0.436971 1.25792 2.71005e-17 0 0 1)
(1.18277 -0.438044 -1.98631e-17 -0.438044 1.24542 3.04084e-17 0 0 1)
(1.19529 -0.43876 -9.12028e-18 -0.43876 1.2329 -8.73771e-18 0 0 1)
(1.20782 -0.439118 -2.96552e-17 -0.439118 1.22037 2.10236e-17 0 0 1)
(1.22037 -0.439118 3.0509e-17 -0.439118 1.20782 5.45722e-18 0 0 1)
(1.2329 -0.43876 1.21819e-19 -0.43876 1.19529 1.27153e-19 0 0 1)
(1.24542 -0.438044 2.60151e-17 -0.438044 1.18277 -2.45818e-17 0 0 1)
(1.25792 -0.436971 -1.25629e-17 -0.436971 1.17027 -1.38859e-17 0 0 1)
(1.27038 -0.435541 -1.8658e-17 -0.435541 1.15781 3.29844e-17 0 0 1)
(1.28279 -0.433756 -1.75948e-17 -0.433756 1.14539 6.95393e-18 0 0 1)
(1.29515 -0.431617 3.13803e-17 -0.431617 1.13304 -1.82303e-17 0 0 1)
(1.30745 -0.429127 2.21207e-18 -0.429127 1.12074 -2.5775e-17 0 0 1)
(1.31966 -0.426286 -3.45765e-17 -0.426286 1.10853 4.29288e-17 0 0 1)
(1.33179 -0.423098 3.90046e-18 -0.423098 1.0964 5.13359e-18 0 0 1)
(1.34383 -0.419564 -5.22591e-20 -0.419564 1.08436 -7.08588e-20 0 0 1)
(1.35575 -0.415688 1.82791e-17 -0.415688 1.07244 -5.20795e-18 0 0 1)
(1.36757 -0.411474 1.10477e-17 -0.411474 1.06062 -1.54659e-17 0 0 1)
(1.37925 -0.406923 4.45071e-17 -0.406923 1.04894 -3.00222e-17 0 0 1)
(1.39081 -0.402041 -4.37305e-17 -0.402041 1.03738 -1.5145e-18 0 0 1)
(1.40222 -0.396831 -2.6988e-17 -0.396831 1.02597 2.42854e-17 0 0 1)
(1.41347 -0.391297 3.05627e-17 -0.391297 1.01472 -1.86256e-17 0 0 1)
(1.42456 -0.385444 -2.42459e-17 -0.385444 1.00363 2.92768e-17 0 0 1)
(1.43548 -0.379277 -1.55849e-17 -0.379277 0.992705 8.79627e-18 0 0 1)
(1.44622 -0.3728 3.12896e-17 -0.3728 0.981965 -1.73766e-17 0 0 1)
(1.45678 -0.366019 1.27804e-17 -0.366019 0.971414 -1.40282e-17 0 0 1)
(1.46713 -0.35894 -2.92741e-18 -0.35894 0.961061 -5.64535e-18 0 0 1)
(1.47728 -0.351568 -1.59828e-17 -0.351568 0.950914 8.04966e-18 0 0 1)
(1.48721 -0.343909 8.25674e-18 -0.343909 0.940982 1.71006e-17 0 0 1)
(1.49692 -0.33597 3.71463e-20 -0.33597 0.931273 7.98256e-20 0 0 1)
(1.5064 -0.327757 3.51902e-17 -0.327757 0.921794 -8.99265e-18 0 0 1)
(1.51564 -0.319276 -3.77625e-17 -0.319276 0.912554 2.81113e-18 0 0 1)
(1.52463 -0.310535 7.13224e-18 -0.310535 0.90356 1.72188e-17 0 0 1)
(1.53337 -0.301541 4.29535e-17 -0.301541 0.894818 -3.7276e-17 0 0 1)
(1.54185 -0.292301 -3.34754e-17 -0.292301 0.886338 1.26645e-17 0 0 1)
(1.55006 -0.282822 -1.67962e-17 -0.282822 0.878125 6.17529e-18 0 0 1)
(1.558 -0.273113 -3.17002e-17 -0.273113 0.870185 1.7791e-17 0 0 1)
(1.56566 -0.263181 5.28776e-17 -0.263181 0.862527 -1.11291e-17 0 0 1)
(1.57303 -0.253034 1.06436e-19 -0.253034 0.855155 3.35713e-19 0 0 1)
(1.58011 -0.242681 -3.25093e-17 -0.242681 0.848075 1.61642e-17 0 0 1)
(1.58689 -0.23213 -1.69959e-18 -0.23213 0.841295 -5.94496e-18 0 0 1)
(1.59337 -0.221389 3.27502e-18 -0.221389 0.834818 1.21072e-17 0 0 1)
(1.59954 -0.210468 6.93581e-17 -0.210468 0.828651 -1.77026e-17 0 0 1)
(1.60539 -0.199376 -3.77093e-17 -0.199376 0.822798 -3.75499e-18 0 0 1)
(1.61093 -0.188121 -6.9874e-17 -0.188121 0.817264 1.5543e-17 0 0 1)
(1.61614 -0.176712 4.02376e-17 -0.176712 0.812054 1.74494e-17 0 0 1)
(1.62102 -0.165159 1.63709e-17 -0.165159 0.807171 -9.54034e-18 0 0 1)
(1.62557 -0.153472 -3.52222e-17 -0.153472 0.802621 6.35478e-18 0 0 1)
(1.62978 -0.141659 1.86727e-17 -0.141659 0.798406 3.21779e-18 0 0 1)
(1.63366 -0.129731 6.98286e-17 -0.129731 0.794531 -1.69806e-17 0 0 1)
(1.63719 -0.117697 -1.77012e-17 -0.117697 0.790997 2.63834e-18 0 0 1)
(1.64038 -0.105567 -5.40772e-17 -0.105567 0.787809 5.68995e-20 0 0 1)
(1.64322 -0.0933508 0 -0.0933508 0.784968 0 0 0 1)
(1.64571 -0.0810586 1.78143e-17 -0.0810586 0.782477 -1.7025e-18 0 0 1)
(1.64785 -0.0687002 5.35173e-17 -0.0687002 0.780338 -4.25606e-18 0 0 1)
(1.64964 -0.0562858 -1.86611e-17 -0.0562858 0.778554 -1.13234e-17 0 0 1)
(1.65107 -0.0438256 -3.54372e-17 -0.0438256 0.777124 7.96349e-18 0 0 1)
(1.65214 -0.0313295 5.36505e-17 -0.0313295 0.776051 -1.96018e-18 0 0 1)
(1.65285 -0.0188079 -2.68636e-19 -0.0188079 0.775335 -1.25395e-17 0 0 1)
(1.65321 -0.00627102 -3.57905e-17 -0.00627102 0.774976 1.67501e-19 0 0 1)
(0.778183 -0.00616095 -6.35636e-18 -0.00616096 1.64101 -4.53851e-20 0 0 1)
(0.778535 -0.0184778 -1.19367e-17 -0.0184778 1.64065 -3.48975e-17 0 0 1)
(0.779239 -0.0307797 -4.68836e-21 -0.0307797 1.63995 -1.67331e-22 0 0 1)
(0.780293 -0.0430564 -2.63815e-18 -0.0430564 1.6389 5.18838e-17 0 0 1)
(0.781698 -0.055298 -1.05751e-17 -0.055298 1.63749 -3.5386e-17 0 0 1)
(0.783451 -0.0674944 6.41757e-18 -0.0674944 1.63574 5.05073e-19 0 0 1)
(0.785553 -0.0796359 -1.9728e-19 -0.0796359 1.63364 -1.8364e-20 0 0 1)
(0.788 -0.0917124 1.38713e-19 -0.0917124 1.63119 1.49134e-20 0 0 1)
(0.79079 -0.103714 -1.06732e-17 -0.103714 1.6284 3.35887e-17 0 0 1)
(0.793923 -0.115631 8.56637e-18 -0.115631 1.62527 -1.63082e-17 0 0 1)
(0.797394 -0.127454 -1.15924e-19 -0.127454 1.62179 -1.75132e-20 0 0 1)
(0.801202 -0.139173 1.31776e-17 -0.139173 1.61799 3.72898e-17 0 0 1)
(0.805343 -0.150778 -1.85139e-17 -0.150778 1.61385 3.18528e-17 0 0 1)
(0.809813 -0.16226 3.70183e-19 -0.16226 1.60938 -3.52153e-17 0 0 1)
(0.81461 -0.17361 -1.838e-17 -0.17361 1.60458 -3.86109e-18 0 0 1)
(0.819729 -0.184819 -3.81256e-18 -0.184819 1.59946 1.6892e-17 0 0 1)
(0.825165 -0.195877 8.08511e-18 -0.195877 1.59402 -3.36769e-17 0 0 1)
(0.830915 -0.206774 1.04263e-17 -0.206774 1.58827 -1.52109e-17 0 0 1)
(0.836975 -0.217504 -6.19258e-18 -0.217504 1.58221 -1.6751e-18 0 0 1)
(0.843338 -0.228056 -1.22233e-17 -0.228056 1.57585 -3.49449e-18 0 0 1)
(0.849999 -0.238421 -4.95628e-18 -0.238421 1.56919 1.65926e-17 0 0 1)
(0.856954 -0.248593 -1.7337e-17 -0.248593 1.56223 1.26698e-17 0 0 1)
(0.864197 -0.258561 6.03123e-18 -0.258561 1.55499 2.00739e-18 0 0 1)
(0.871721 -0.268319 5.9466e-18 -0.268319 1.54747 2.074e-18 0 0 1)
(0.879521 -0.277858 1.177e-17 -0.277858 1.53967 -5.10064e-17 0 0 1)
(0.88759 -0.28717 3.17985e-19 -0.28717 1.5316 -1.84109e-17 0 0 1)
(0.895922 -0.296248 -7.07722e-18 -0.296248 1.52327 3.4457e-17 0 0 1)
(0.90451 -0.305085 -2.99697e-17 -0.305085 1.51468 6.32985e-18 0 0 1)
(0.913346 -0.313672 -1.26775e-17 -0.313672 1.50584 1.33926e-17 0 0 1)
(0.922424 -0.322004 7.20249e-18 -0.322004 1.49676 -1.57486e-17 0 0 1)
(0.931736 -0.330073 4.23029e-18 -0.330073 1.48745 2.10686e-17 0 0 1)
(0.941275 -0.337873 3.80338e-18 -0.337873 1.47791 2.10662e-17 0 0 1)
(0.951033 -0.345398 1.28951e-19 -0.345398 1.46816 6.45483e-20 0 0 1)
(0.961002 -0.35264 7.90976e-18 -0.35264 1.45819 -1.54051e-17 0 0 1)
(0.971173 -0.359595 8.25185e-18 -0.359595 1.44802 -1.52246e-17 0 0 1)
(0.981539 -0.366257 -2.35731e-20 -0.366257 1.43765 -1.30912e-20 0 0 1)
(0.992091 -0.37262 8.65986e-18 -0.37262 1.4271 -1.49962e-17 0 0 1)
(1.00282 -0.378679 -2.84316e-17 -0.378679 1.41637 2.3402e-17 0 0 1)
(1.01372 -0.384429 -2.88088e-17 -0.384429 1.40547 2.29655e-17 0 0 1)
(1.02478 -0.389866 1.85427e-17 -0.389866 1.39441 -2.92519e-17 0 0 1)
(1.03598 -0.394985 4.01966e-17 -0.394985 1.3832 -1.512e-17 0 0 1)
(1.04733 -0.399781 0 -0.399781 1.37185 0 0 0 1)
(1.05882 -0.404252 -9.33571e-18 -0.404252 1.36037 3.56815e-17 0 0 1)
(1.07042 -0.408392 -1.01827e-17 -0.408392 1.34877 1.40073e-17 0 0 1)
(1.08214 -0.4122 2.0604e-17 -0.4122 1.33705 -2.78385e-17 0 0 1)
(1.09396 -0.415672 -1.55288e-17 -0.415672 1.32523 9.94964e-18 0 0 1)
(1.10588 -0.418804 -7.61481e-19 -0.418804 1.31331 2.13932e-17 0 0 1)
(1.11788 -0.421595 2.1686e-17 -0.421595 1.30131 -2.70041e-17 0 0 1)
(1.12996 -0.424042 -9.71812e-18 -0.424042 1.28923 -8.06293e-18 0 0 1)
(1.1421 -0.426143 -1.11453e-17 -0.426143 1.27709 1.32543e-17 0 0 1)
(1.1543 -0.427897 -1.41902e-17 -0.427897 1.26489 -1.24744e-17 0 0 1)
(1.16654 -0.429301 -2.42449e-18 -0.429301 1.25265 -2.55458e-17 0 0 1)
(1.17881 -0.430356 -1.64013e-17 -0.430356 1.24037 8.39025e-18 0 0 1)
(1.19112 -0.431059 -3.31168e-17 -0.431059 1.22807 1.62358e-17 0 0 1)
(1.20343 -0.431411 4.85486e-17 -0.431411 1.21576 -4.94071e-17 0 0 1)
(1.21576 -0.431411 3.36048e-17 -0.431411 1.20343 -1.52451e-17 0 0 1)
(1.22807 -0.431059 -6.76073e-17 -0.431059 1.19112 2.95595e-17 0 0 1)
(1.24037 -0.430356 -8.43019e-18 -0.430356 1.17881 1.63584e-17 0 0 1)
(1.25265 -0.429301 8.74243e-18 -0.429301 1.16654 -4.19601e-17 0 0 1)
(1.26489 -0.427897 8.37276e-18 -0.427897 1.1543 9.52442e-18 0 0 1)
(1.27709 -0.426143 -3.45542e-17 -0.426143 1.1421 1.28704e-17 0 0 1)
(1.28923 -0.424042 1.20843e-17 -0.424042 1.12996 1.4565e-17 0 0 1)
(1.30131 -0.421595 1.51121e-17 -0.421595 1.11788 -3.64431e-17 0 0 1)
(1.31331 -0.418804 1.7509e-17 -0.418804 1.10588 -5.72491e-18 0 0 1)
(1.32523 -0.415672 -2.37151e-17 -0.415672 1.09396 2.60355e-17 0 0 1)
(1.33705 -0.4122 1.499e-17 -0.4122 1.08214 2.03252e-17 0 0 1)
(1.34877 -0.408392 -3.63396e-18 -0.408392 1.07042 -5.07756e-18 0 0 1)
(1.36037 -0.404252 -6.4189e-20 -0.404252 1.05882 -9.24497e-20 0 0 1)
(1.37185 -0.399781 -7.00508e-18 -0.399781 1.04733 -1.04032e-17 0 0 1)
(1.3832 -0.394985 -2.48668e-17 -0.394985 1.03598 -6.41346e-18 0 0 1)
(1.39441 -0.389866 2.92375e-17 -0.389866 1.02478 -1.85655e-17 0 0 1)
(1.40547 -0.384429 4.09517e-17 -0.384429 1.01372 -3.26005e-17 0 0 1)
(1.41637 -0.378679 -3.62015e-17 -0.378679 1.00282 6.8592e-18 0 0 1)
(1.4271 -0.37262 -3.88286e-17 -0.37262 0.992091 3.67076e-17 0 0 1)
(1.43765 -0.366257 1.8246e-17 -0.366257 0.981539 -2.81292e-18 0 0 1)
(1.44802 -0.359595 2.77255e-20 -0.359595 0.971173 5.16489e-20 0 0 1)
(1.45819 -0.35264 1.53803e-17 -0.35264 0.961002 -7.95763e-18 0 0 1)
(1.46816 -0.345398 4.64365e-17 -0.345398 0.951033 -2.32923e-17 0 0 1)
(1.47791 -0.337873 2.76179e-18 -0.337873 0.941275 5.71999e-18 0 0 1)
(1.48745 -0.330073 -2.6073e-17 -0.330073 0.931736 2.60606e-17 0 0 1)
(1.49676 -0.322004 2.57527e-18 -0.322004 0.922424 5.74731e-18 0 0 1)
(1.50584 -0.313672 -7.50203e-18 -0.313672 0.913346 -1.74043e-17 0 0 1)
(1.51468 -0.305085 -1.36171e-17 -0.305085 0.90451 1.23766e-17 0 0 1)
(1.52327 -0.296248 3.33525e-20 -0.296248 0.895922 8.38886e-20 0 0 1)
(1.5316 -0.28717 1.61967e-17 -0.28717 0.88759 -6.12735e-18 0 0 1)
(1.53967 -0.277858 -2.1788e-18 -0.277858 0.879521 -5.97145e-18 0 0 1)
(1.54747 -0.268319 -1.63562e-17 -0.268319 0.871721 5.6878e-18 0 0 1)
(1.55499 -0.258561 3.47963e-17 -0.258561 0.864197 -5.12415e-18 0 0 1)
(1.56223 -0.248593 7.75957e-20 -0.248593 0.856954 2.44747e-19 0 0 1)
(1.56919 -0.238421 -4.79603e-17 -0.238421 0.849999 2.08988e-17 0 0 1)
(1.57585 -0.228056 1.4907e-17 -0.228056 0.843338 -1.08564e-17 0 0 1)
(1.58221 -0.217504 2.33359e-17 -0.217504 0.836975 1.99504e-17 0 0 1)
(1.58827 -0.206774 -1.57201e-18 -0.206774 0.830915 -6.15907e-18 0 0 1)
(1.59402 -0.195877 -3.65974e-17 -0.195877 0.825165 -4.07945e-18 0 0 1)
(1.59946 -0.184819 3.51281e-17 -0.184819 0.819729 -1.65244e-18 0 0 1)
(1.60458 -0.17361 1.9574e-17 -0.17361 0.81461 8.9451e-18 0 0 1)
(1.60938 -0.16226 -5.10018e-17 -0.16226 0.809813 9.88467e-18 0 0 1)
(1.61385 -0.150778 0 -0.150778 0.805343 0 0 0 1)
(1.61799 -0.139173 4.14714e-18 -0.139173 0.801202 2.50262e-17 0 0 1)
(1.62179 -0.127454 5.13575e-17 -0.127454 0.797394 -7.8293e-18 0 0 1)
(1.62527 -0.115631 -1.88367e-17 -0.115631 0.793923 -9.95744e-18 0 0 1)
(1.6284 -0.103714 -5.08177e-17 -0.103714 0.79079 1.24459e-17 0 0 1)
(1.63119 -0.0917124 1.65428e-17 -0.0917124 0.788 -8.12865e-18 0 0 1)
(1.63364 -0.0796359 1.66493e-17 -0.0796359 0.785553 -7.97682e-18 0 0 1)
(1.63574 -0.0674944 1.67682e-17 -0.0674944 0.783451 -7.65294e-18 0 0 1)
(1.63749 -0.055298 -8.08848e-19 -0.055298 0.781698 -1.25698e-17 0 0 1)
(1.6389 -0.0430564 3.14638e-19 -0.0430564 0.780293 6.29004e-18 0 0 1)
(1.63995 -0.0307797 0 -0.0307797 0.779239 0 0 0 1)
(1.64065 -0.0184778 -2.69781e-19 -0.0184778 0.778535 -1.25929e-17 0 0 1)
(1.64101 -0.00616096 0 -0.00616095 0.778183 0 0 0 1)
(0.782676 -0.00604473 1.35787e-19 -0.00604473 1.62922 -1.6765e-17 0 0 1)
(0.783021 -0.0181293 8.26826e-20 -0.0181293 1.62888 1.77125e-21 0 0 1)
(0.783711 -0.030199 -2.51501e-17 -0.030199 1.62819 -8.98239e-19 0 0 1)
(0.784746 -0.0422441 -1.33258e-17 -0.0422441 1.62715 1.612e-17 0 0 1)
(0.786124 -0.0542548 1.8795e-17 -0.0542548 1.62577 1.20943e-18 0 0 1)
(0.787845 -0.0662212 -9.76116e-18 -0.0662212 1.62405 -3.44031e-17 0 0 1)
(0.789906 -0.0781336 -6.34394e-18 -0.0781336 1.62199 -5.9054e-19 0 0 1)
(0.792307 -0.0899823 -1.59434e-17 -0.0899823 1.61959 3.20103e-17 0 0 1)
(0.795045 -0.101758 4.17134e-18 -0.101758 1.61685 1.73987e-17 0 0 1)
(0.798118 -0.11345 1.26507e-17 -0.11345 1.61378 1.7268e-18 0 0 1)
(0.801524 -0.12505 7.42239e-18 -0.12505 1.61037 -4.97461e-17 0 0 1)
(0.80526 -0.136547 5.6132e-18 -0.136547 1.60664 -3.30583e-17 0 0 1)
(0.809323 -0.147934 4.07061e-19 -0.147934 1.60257 6.82185e-17 0 0 1)
(0.813709 -0.1592 -3.33383e-18 -0.1592 1.59819 1.64312e-17 0 0 1)
(0.818415 -0.170335 6.94965e-18 -0.170335 1.59348 -3.28031e-17 0 0 1)
(0.823437 -0.181332 1.22884e-17 -0.181332 1.58846 2.76522e-18 0 0 1)
(0.828772 -0.192181 6.05907e-18 -0.192181 1.58313 1.45465e-18 0 0 1)
(0.834413 -0.202874 -4.02604e-18 -0.202874 1.57748 1.62755e-17 0 0 1)
(0.840358 -0.213401 -8.72452e-18 -0.213401 1.57154 3.23763e-17 0 0 1)
(0.846601 -0.223753 3.35307e-17 -0.223753 1.5653 -2.52885e-17 0 0 1)
(0.853137 -0.233924 1.58366e-19 -0.233924 1.55876 4.77315e-20 0 0 1)
(0.859961 -0.243903 5.91577e-18 -0.243903 1.55194 1.87556e-18 0 0 1)
(0.867067 -0.253684 2.33303e-17 -0.253684 1.54483 -9.90476e-18 0 0 1)
(0.874449 -0.263258 4.01523e-19 -0.263258 1.53745 1.78961e-17 0 0 1)
(0.882102 -0.272617 -5.93144e-18 -0.272617 1.5298 -2.1642e-18 0 0 1)
(0.890019 -0.281753 -1.16389e-17 -0.281753 1.52188 -4.43599e-18 0 0 1)
(0.898194 -0.29066 -6.10228e-18 -0.29066 1.5137 1.56159e-17 0 0 1)
(0.906619 -0.29933 2.97156e-20 -0.29933 1.50528 1.23087e-20 0 0 1)
(0.915289 -0.307755 3.2268e-17 -0.307755 1.49661 -5.91182e-17 0 0 1)
(0.924196 -0.31593 1.2649e-17 -0.31593 1.4877 -1.27039e-17 0 0 1)
(0.933332 -0.323847 -1.42217e-17 -0.323847 1.47857 3.03659e-17 0 0 1)
(0.942691 -0.3315 -1.0344e-19 -0.3315 1.46921 -4.9944e-20 0 0 1)
(0.952265 -0.338882 -1.87286e-18 -0.338882 1.45963 1.78112e-17 0 0 1)
(0.962046 -0.345988 -7.80557e-18 -0.345988 1.44985 1.4838e-17 0 0 1)
(0.972025 -0.352812 -3.18236e-18 -0.352812 1.43987 -2.07368e-17 0 0 1)
(0.982195 -0.359348 1.36455e-17 -0.359348 1.4297 -1.15994e-17 0 0 1)
(0.992548 -0.365591 0 -0.365591 1.41935 0 0 0 1)
(1.00308 -0.371536 1.08602e-17 -0.371536 1.40882 6.44363e-18 0 0 1)
(1.01377 -0.377177 1.06691e-17 -0.377177 1.39813 6.53803e-18 0 0 1)
(1.02462 -0.382512 1.77595e-17 -0.382512 1.38728 -2.84425e-17 0 0 1)
(1.03561 -0.387534 1.06165e-17 -0.387534 1.37628 6.93044e-18 0 0 1)
(1.04675 -0.39224 -1.87969e-17 -0.39224 1.36515 2.77673e-17 0 0 1)
(1.05802 -0.396626 -1.90556e-17 -0.396626 1.35388 2.75904e-17 0 0 1)
(1.0694 -0.400689 1.01344e-17 -0.400689 1.3425 7.25308e-18 0 0 1)
(1.0809 -0.404424 -1.49124e-17 -0.404424 1.331 9.83395e-18 0 0 1)
(1.0925 -0.40783 -6.03601e-20 -0.40783 1.3194 -4.58608e-20 0 0 1)
(1.10419 -0.410904 2.03495e-17 -0.410904 1.30771 -5.36425e-18 0 0 1)
(1.11597 -0.413642 -2.59757e-17 -0.413642 1.29593 2.21311e-17 0 0 1)
(1.12782 -0.416043 4.2782e-17 -0.416043 1.28408 -5.16436e-17 0 0 1)
(1.13973 -0.418104 6.17631e-18 -0.418104 1.27217 -1.67731e-17 0 0 1)
(1.15169 -0.419825 -2.8559e-17 -0.419825 1.2602 4.18624e-17 0 0 1)
(1.1637 -0.421203 -6.53522e-18 -0.421203 1.24819 1.66963e-17 0 0 1)
(1.17575 -0.422238 -1.13706e-17 -0.422238 1.23615 1.23207e-17 0 0 1)
(1.18782 -0.422928 1.15686e-17 -0.422928 1.22408 -1.21349e-17 0 0 1)
(1.1999 -0.423273 3.24921e-17 -0.423273 1.21199 -1.50538e-17 0 0 1)
(1.21199 -0.423273 -4.44577e-17 -0.423273 1.1999 2.65466e-17 0 0 1)
(1.22408 -0.422928 -1.21476e-17 -0.422928 1.18782 1.15553e-17 0 0 1)
(1.23615 -0.422238 3.32197e-17 -0.422238 1.17575 -1.35274e-17 0 0 1)
(1.24819 -0.421203 8.15182e-18 -0.421203 1.1637 -1.59795e-17 0 0 1)
(1.2602 -0.419825 1.09206e-19 -0.419825 1.15169 1.24226e-19 0 0 1)
(1.27217 -0.418104 4.03045e-18 -0.418104 1.13973 4.71905e-18 0 0 1)
(1.28408 -0.416043 1.29087e-17 -0.416043 1.12782 -1.06982e-17 0 0 1)
(1.29593 -0.413642 -9.11853e-18 -0.413642 1.11597 1.5404e-17 0 0 1)
(1.30771 -0.410904 1.32132e-17 -0.410904 1.10419 -1.03197e-17 0 0 1)
(1.3194 -0.40783 4.00234e-17 -0.40783 1.0925 -3.04614e-17 0 0 1)
(1.331 -0.404424 -1.94797e-17 -0.404424 1.0809 3.008e-17 0 0 1)
(1.3425 -0.400689 -4.09544e-17 -0.400689 1.0694 2.91977e-17 0 0 1)
(1.35388 -0.396626 7.21637e-18 -0.396626 1.05802 1.03936e-17 0 0 1)
(1.36515 -0.39224 -7.03515e-18 -0.39224 1.04675 -1.04479e-17 0 0 1)
(1.37628 -0.387534 6.91663e-18 -0.387534 1.03561 1.05954e-17 0 0 1)
(1.38728 -0.382512 3.36205e-18 -0.382512 1.02462 5.3145e-18 0 0 1)
(1.39813 -0.377177 -6.52483e-18 -0.377177 1.01377 -1.06475e-17 0 0 1)
(1.40882 -0.371536 8.02894e-18 -0.371536 1.00308 -1.93242e-17 0 0 1)
(1.41935 -0.365591 3.53505e-17 -0.365591 0.992548 -5.77326e-18 0 0 1)
(1.4297 -0.359348 3.03755e-18 -0.359348 0.982195 5.46965e-18 0 0 1)
(1.43987 -0.352812 -3.01347e-18 -0.352812 0.972025 -5.61368e-18 0 0 1)
(1.44985 -0.345988 2.88012e-18 -0.345988 0.962046 5.55416e-18 0 0 1)
(1.45963 -0.338882 -5.65245e-18 -0.338882 0.952265 -1.12922e-17 0 0 1)
(1.46921 -0.3315 2.4719e-17 -0.3315 0.942691 -2.59222e-17 0 0 1)
(1.47857 -0.323847 2.13212e-20 -0.323847 0.933332 4.58196e-20 0 0 1)
(1.4877 -0.31593 -4.59165e-17 -0.31593 0.924196 2.05291e-17 0 0 1)
(1.49661 -0.307755 -3.07696e-17 -0.307755 0.915289 1.33256e-17 0 0 1)
(1.50528 -0.29933 4.6433e-17 -0.29933 0.906619 -1.93326e-17 0 0 1)
(1.5137 -0.29066 3.35195e-17 -0.29066 0.898194 -6.45048e-18 0 0 1)
(1.52188 -0.281753 -4.70136e-17 -0.281753 0.890019 1.78743e-17 0 0 1)
(1.5298 -0.272617 -2.00728e-17 -0.272617 0.882102 -6.10112e-18 0 0 1)
(1.53745 -0.263258 -4.13965e-18 -0.263258 0.874449 -1.18693e-17 0 0 1)
(1.54483 -0.253684 4.96776e-17 -0.253684 0.867067 -1.00106e-17 0 0 1)
(1.55194 -0.243903 -3.7414e-18 -0.243903 0.859961 -1.18009e-17 0 0 1)
(1.55876 -0.233924 -4.63707e-17 -0.233924 0.853137 2.0441e-17 0 0 1)
(1.5653 -0.223753 5.00608e-17 -0.223753 0.846601 -7.87385e-18 0 0 1)
(1.57154 -0.213401 3.47913e-20 -0.213401 0.840358 1.28617e-19 0 0 1)
(1.57748 -0.202874 -3.56393e-17 -0.202874 0.834413 -4.04776e-18 0 0 1)
(1.58313 -0.192181 1.93065e-20 -0.192181 0.828772 8.04165e-20 0 0 1)
(1.58846 -0.181332 2.74152e-18 -0.181332 0.823437 1.21831e-17 0 0 1)
(1.59348 -0.170335 1.38435e-17 -0.170335 0.818415 -1.5652e-17 0 0 1)
(1.59819 -0.1592 -1.76678e-17 -0.1592 0.813709 -3.00068e-18 0 0 1)
(1.60257 -0.147934 3.40901e-17 -0.147934 0.809323 9.72755e-20 0 0 1)
(1.60664 -0.136547 1.75779e-17 -0.136547 0.80526 3.5221e-18 0 0 1)
(1.61037 -0.12505 -3.22327e-17 -0.12505 0.801524 1.11134e-17 0 0 1)
(1.61378 -0.11345 -1.69231e-18 -0.11345 0.798118 -1.2398e-17 0 0 1)
(1.61685 -0.101758 -3.17593e-17 -0.101758 0.795045 1.65631e-17 0 0 1)
(1.61959 -0.0899823 -3.26668e-17 -0.0899823 0.792307 9.83695e-18 0 0 1)
(1.62199 -0.0781336 1.72801e-17 -0.0781336 0.789906 4.74883e-18 0 0 1)
(1.62405 -0.0662212 3.24415e-17 -0.0662212 0.787845 -1.51625e-17 0 0 1)
(1.62577 -0.0542548 1.67336e-17 -0.0542548 0.786124 -1.03535e-18 0 0 1)
(1.62715 -0.0422441 -6.30877e-19 -0.0422441 0.784746 -1.26121e-17 0 0 1)
(1.62819 -0.030199 0 -0.030199 0.783711 0 0 0 1)
(1.62888 -0.0181293 0 -0.0181293 0.783021 0 0 0 1)
(1.62922 -0.00604473 0 -0.00604473 0.782676 0 0 0 1)
(0.786329 -0.00593703 -6.34882e-18 -0.00593703 1.61779 -4.53313e-20 0 0 1)
(0.786668 -0.0178063 -6.15406e-19 -0.0178062 1.61745 3.24711e-17 0 0 1)
(0.787346 -0.0296609 5.10561e-18 -0.0296609 1.61677 3.26799e-17 0 0 1)
(0.788362 -0.0414915 3.1976e-18 -0.0414915 1.61576 -6.4875e-17 0 0 1)
(0.789715 -0.0532881 1.46593e-17 -0.0532881 1.6144 -3.16007e-17 0 0 1)
(0.791405 -0.0650413 -1.76424e-17 -0.0650413 1.61271 6.37661e-17 0 0 1)
(0.79343 -0.0767415 -4.72844e-20 -0.0767415 1.61069 -4.4016e-21 0 0 1)
(0.795788 -0.088379 1.60643e-17 -0.088379 1.60833 -3.09369e-17 0 0 1)
(0.798477 -0.0999445 3.74063e-18 -0.0999445 1.60564 -3.22613e-17 0 0 1)
(0.801496 -0.111428 6.22581e-18 -0.111428 1.60262 8.49811e-19 0 0 1)
(0.804841 -0.122822 1.98453e-17 -0.122822 1.59928 3.58435e-17 0 0 1)
(0.808511 -0.134114 -1.23043e-17 -0.134114 1.59561 -2.03897e-18 0 0 1)
(0.812501 -0.145298 -5.68743e-18 -0.145298 1.59162 3.19751e-17 0 0 1)
(0.816809 -0.156363 -1.57452e-19 -0.156363 1.58731 -3.0735e-20 0 0 1)
(0.821431 -0.1673 5.4182e-19 -0.1673 1.58269 -3.30719e-17 0 0 1)
(0.826364 -0.178101 0 -0.178101 1.57776 0 0 0 1)
(0.831603 -0.188757 -6.17356e-18 -0.188757 1.57252 -1.48214e-18 0 0 1)
(0.837144 -0.199259 0 -0.199259 1.56698 0 0 0 1)
(0.842983 -0.209598 2.88451e-17 -0.209598 1.56114 -5.94855e-17 0 0 1)
(0.849115 -0.219767 1.2083e-17 -0.219767 1.555 3.45437e-18 0 0 1)
(0.855534 -0.229756 -3.09473e-17 -0.229756 1.54859 5.85123e-17 0 0 1)
(0.862237 -0.239557 9.63099e-18 -0.239557 1.54188 -3.10166e-17 0 0 1)
(0.869216 -0.249164 -1.1896e-17 -0.249164 1.5349 -3.95935e-18 0 0 1)
(0.876467 -0.258567 -2.73851e-17 -0.258567 1.52765 5.92397e-17 0 0 1)
(0.883983 -0.267759 5.81367e-18 -0.267759 1.52014 2.12123e-18 0 0 1)
(0.891759 -0.276733 1.74686e-17 -0.276733 1.51236 -2.80979e-17 0 0 1)
(0.899788 -0.285481 5.79485e-18 -0.285481 1.50433 2.30392e-18 0 0 1)
(0.908064 -0.293996 1.15227e-17 -0.293996 1.49606 4.77287e-18 0 0 1)
(0.916579 -0.302272 -5.83041e-18 -0.302272 1.48754 -2.51316e-18 0 0 1)
(0.925327 -0.310301 1.03062e-19 -0.310301 1.47879 4.61804e-20 0 0 1)
(0.934301 -0.318077 -1.36292e-17 -0.318077 1.46982 2.94787e-17 0 0 1)
(0.943493 -0.325593 -4.2765e-20 -0.325593 1.46063 -2.06482e-20 0 0 1)
(0.952896 -0.332844 1.43455e-19 -0.332844 1.45122 7.18083e-20 0 0 1)
(0.962502 -0.339823 -2.05576e-17 -0.339823 1.44162 2.59234e-17 0 0 1)
(0.972304 -0.346526 2.08839e-17 -0.346526 1.43182 -2.56497e-17 0 0 1)
(0.982293 -0.352945 1.58377e-17 -0.352945 1.42183 -2.83534e-17 0 0 1)
(0.992461 -0.359077 1.61019e-17 -0.359077 1.41166 -2.82043e-17 0 0 1)
(1.0028 -0.364916 4.08411e-20 -0.364916 1.40132 2.4232e-20 0 0 1)
(1.0133 -0.370457 -4.46687e-17 -0.370457 1.39082 4.88065e-17 0 0 1)
(1.02396 -0.375696 1.72549e-17 -0.375696 1.38016 -2.75142e-17 0 0 1)
(1.03476 -0.380629 7.41608e-18 -0.380629 1.36936 -3.39431e-17 0 0 1)
(1.0457 -0.385251 -1.8206e-17 -0.385251 1.35842 2.68941e-17 0 0 1)
(1.05676 -0.389559 0 -0.389559 1.34736 0 0 0 1)
(1.06795 -0.393549 -8.69387e-18 -0.393549 1.33617 3.37153e-17 0 0 1)
(1.07924 -0.397218 -3.8219e-20 -0.397218 1.32488 -2.81868e-20 0 0 1)
(1.09063 -0.400564 4.46286e-17 -0.400564 1.31349 -6.87921e-18 0 0 1)
(1.10212 -0.403582 -1.99519e-17 -0.403582 1.302 2.56257e-17 0 0 1)
(1.11368 -0.406272 9.67432e-18 -0.406272 1.29044 7.79606e-18 0 0 1)
(1.12532 -0.40863 9.72202e-18 -0.40863 1.2788 8.06617e-18 0 0 1)
(1.13702 -0.410655 -9.51997e-18 -0.410655 1.2671 -8.13082e-18 0 0 1)
(1.14877 -0.412345 2.61864e-17 -0.412345 1.25535 -2.02216e-17 0 0 1)
(1.16057 -0.413698 4.62435e-18 -0.413698 1.24355 4.18375e-18 0 0 1)
(1.1724 -0.414714 -2.21543e-17 -0.414714 1.23172 2.37473e-17 0 0 1)
(1.18425 -0.415392 8.97168e-18 -0.415392 1.21987 8.59534e-18 0 0 1)
(1.19612 -0.415731 2.72981e-17 -0.415731 1.208 -1.86937e-17 0 0 1)
(1.208 -0.415731 0 -0.415731 1.19612 0 0 0 1)
(1.21987 -0.415392 1.72564e-17 -0.415392 1.18425 1.8012e-17 0 0 1)
(1.23172 -0.414714 -1.94656e-17 -0.414714 1.1724 2.67531e-17 0 0 1)
(1.24355 -0.413698 8.33564e-18 -0.413698 1.16057 9.21347e-18 0 0 1)
(1.25535 -0.412345 2.44448e-17 -0.412345 1.14877 -2.13823e-17 0 0 1)
(1.2671 -0.410655 -1.65435e-17 -0.410655 1.13702 3.06369e-17 0 0 1)
(1.2788 -0.40863 -8.06617e-18 -0.40863 1.12532 -9.72202e-18 0 0 1)
(1.29044 -0.406272 3.71478e-17 -0.406272 1.11368 -5.66088e-18 0 0 1)
(1.302 -0.403582 3.84319e-18 -0.403582 1.10212 4.91103e-18 0 0 1)
(1.31349 -0.400564 0 -0.400564 1.09063 0 0 0 1)
(1.32488 -0.397218 -7.40277e-18 -0.397218 1.07924 -1.00375e-17 0 0 1)
(1.33617 -0.393549 1.45831e-17 -0.393549 1.06795 2.03763e-17 0 0 1)
(1.34736 -0.389559 -1.58973e-17 -0.389559 1.05676 3.40482e-17 0 0 1)
(1.35842 -0.385251 -8.96023e-20 -0.385251 1.0457 -1.33069e-19 0 0 1)
(1.36936 -0.380629 3.75273e-17 -0.380629 1.03476 -1.92551e-18 0 0 1)
(1.38016 -0.375696 -2.74634e-17 -0.375696 1.02396 1.73351e-17 0 0 1)
(1.39082 -0.370457 3.23351e-18 -0.370457 1.0133 5.27662e-18 0 0 1)
(1.40132 -0.364916 3.43356e-17 -0.364916 1.0028 -5.77679e-18 0 0 1)
(1.41166 -0.359077 0 -0.359077 0.992461 0 0 0 1)
(1.42183 -0.352945 -1.61333e-17 -0.352945 0.982293 3.78423e-17 0 0 1)
(1.43182 -0.346526 -2.24609e-20 -0.346526 0.972304 -4.18413e-20 0 0 1)
(1.44162 -0.339823 7.38497e-20 -0.339823 0.962502 1.42415e-19 0 0 1)
(1.45122 -0.332844 -2.12569e-20 -0.332844 0.952896 -4.24657e-20 0 0 1)
(1.46063 -0.325593 2.92811e-17 -0.325593 0.943493 -1.40488e-17 0 0 1)
(1.46982 -0.318077 -5.26197e-18 -0.318077 0.934301 -1.13077e-17 0 0 1)
(1.47879 -0.310301 5.14614e-18 -0.310301 0.925327 1.14848e-17 0 0 1)
(1.48754 -0.302272 7.45008e-18 -0.302272 0.916579 1.72838e-17 0 0 1)
(1.49606 -0.293996 9.58895e-18 -0.293996 0.908064 2.31498e-17 0 0 1)
(1.50433 -0.285481 -4.60784e-18 -0.285481 0.899788 -1.15897e-17 0 0 1)
(1.51236 -0.276733 -3.48009e-17 -0.276733 0.891759 -1.18426e-19 0 0 1)
(1.52014 -0.267759 -2.83607e-17 -0.267759 0.883983 1.7021e-17 0 0 1)
(1.52765 -0.258567 3.27297e-17 -0.258567 0.876467 -4.77605e-18 0 0 1)
(1.5349 -0.249164 3.67839e-17 -0.249164 0.869216 7.67787e-18 0 0 1)
(1.54188 -0.239557 -7.57274e-18 -0.239557 0.862237 -2.38854e-17 0 0 1)
(1.54859 -0.229756 5.43132e-18 -0.229756 0.855534 1.80204e-17 0 0 1)
(1.555 -0.219767 5.17344e-18 -0.219767 0.849115 1.80961e-17 0 0 1)
(1.56114 -0.209598 -3.7872e-17 -0.209598 0.842983 -1.56301e-17 0 0 1)
(1.56698 -0.199259 1.53047e-18 -0.199259 0.837144 5.99633e-18 0 0 1)
(1.57252 -0.188757 3.45362e-17 -0.188757 0.831603 4.73374e-18 0 0 1)
(1.57776 -0.178101 1.36904e-18 -0.178101 0.826364 6.08392e-18 0 0 1)