/*--------------------------------*- C++ -*----------------------------------*\
| =========                 |                                                 |
| \\      /  F ield         | OpenFOAM: The Open Source CFD Toolbox           |
|  \\    /   O peration     | Version:  2312                                  |
|   \\  /    A nd           | Website:  www.openfoam.com                      |
|    \\/     M anipulation  |                                                 |
\*---------------------------------------------------------------------------*/
FoamFile
{
    version     2.0;
    format      ascii;
    arch        "LSB;label=32;scalar=64";
    class       pointVectorField;
    location    "90";
    object      pointD;
}
// * * * * * * * * * * * * * * * * * * * * * * * * * * * * * * * * * * * * * //

dimensions      [0 1 0 0 0 0 0];

internalField   nonuniform List<vector> 
26196
(
(4.61654 0 0)
(3.7061 0 0)
(0 4.61654 0)
(0 3.7061 0)
(4.61654 0 0)
(3.7061 0 0)
(0 3.7061 0)
(0 4.61654 0)
(4.59409 0 0)
(4.57201 0 0)
(4.55043 0 0)
(4.52918 0 0)
(4.50835 0 0)
(4.48789 0 0)
(4.46781 0 0)
(4.4481 0 0)
(4.42876 0 0)
(4.40978 0 0)
(4.39116 0 0)
(4.3729 0 0)
(4.35498 0 0)
(4.33741 0 0)
(4.32017 0 0)
(4.30327 0 0)
(4.2867 0 0)
(4.27045 0 0)
(4.25453 0 0)
(4.23892 0 0)
(4.22362 0 0)
(4.20863 0 0)
(4.19394 0 0)
(4.17955 0 0)
(4.16546 0 0)
(4.15165 0 0)
(4.13814 0 0)
(4.1249 0 0)
(4.11194 0 0)
(4.09926 0 0)
(4.08684 0 0)
(4.07469 0 0)
(4.06281 0 0)
(4.05118 0 0)
(4.03981 0 0)
(4.02868 0 0)
(4.01781 0 0)
(4.00718 0 0)
(3.99679 0 0)
(3.98663 0 0)
(3.97671 0 0)
(3.96702 0 0)
(3.95755 0 0)
(3.94831 0 0)
(3.93928 0 0)
(3.93048 0 0)
(3.92189 0 0)
(3.9135 0 0)
(3.90533 0 0)
(3.89736 0 0)
(3.88959 0 0)
(3.88201 0 0)
(3.87464 0 0)
(3.86745 0 0)
(3.86046 0 0)
(3.85365 0 0)
(3.84703 0 0)
(3.84059 0 0)
(3.83433 0 0)
(3.82824 0 0)
(3.82233 0 0)
(3.81659 0 0)
(3.81102 0 0)
(3.80562 0 0)
(3.80038 0 0)
(3.7953 0 0)
(3.79038 0 0)
(3.78562 0 0)
(3.78101 0 0)
(3.77656 0 0)
(3.77225 0 0)
(3.7681 0 0)
(3.76409 0 0)
(3.76022 0 0)
(3.7565 0 0)
(3.75292 0 0)
(3.74948 0 0)
(3.74617 0 0)
(3.743 0 0)
(3.73996 0 0)
(3.73705 0 0)
(3.73427 0 0)
(3.73161 0 0)
(3.72909 0 0)
(3.72668 0 0)
(3.7244 0 0)
(3.72224 0 0)
(3.7202 0 0)
(3.71827 0 0)
(3.71646 0 0)
(3.71476 0 0)
(3.71318 0 0)
(3.71171 0 0)
(3.71034 0 0)
(3.70909 0 0)
(3.70794 0 0)
(3.70689 0 0)
(3.70595 0 0)
(3.70512 0 0)
(3.70438 0 0)
(3.70374 0 0)
(3.7032 0 0)
(3.70276 0 0)
(3.70241 0 0)
(3.70216 0 0)
(3.702 0 0)
(3.70194 0 0)
(3.70196 0 0)
(3.70208 0 0)
(3.70228 0 0)
(3.70257 0 0)
(3.70295 0 0)
(3.70341 0 0)
(3.70396 0 0)
(3.70458 0 0)
(3.7053 0 0)
(3.70572 0.0529211 0)
(3.70459 0.105831 0)
(3.7027 0.15872 0)
(3.70005 0.211577 0)
(3.69665 0.26439 0)
(3.6925 0.317149 0)
(3.6876 0.369844 0)
(3.68194 0.422463 0)
(3.67553 0.474996 0)
(3.66837 0.527433 0)
(3.66047 0.579761 0)
(3.65182 0.631972 0)
(3.64242 0.684053 0)
(3.63228 0.735996 0)
(3.6214 0.787788 0)
(3.60978 0.839419 0)
(3.59743 0.890879 0)
(3.58434 0.942158 0)
(3.57052 0.993244 0)
(3.55597 1.04413 0)
(3.5407 1.0948 0)
(3.52471 1.14525 0)
(3.50799 1.19546 0)
(3.49057 1.24543 0)
(3.47243 1.29515 0)
(3.45358 1.3446 0)
(3.43403 1.39378 0)
(3.41377 1.44267 0)
(3.39282 1.49127 0)
(3.37118 1.53957 0)
(3.34886 1.58755 0)
(3.32585 1.63521 0)
(3.30216 1.68253 0)
(3.27779 1.72951 0)
(3.25276 1.77614 0)
(3.22707 1.82241 0)
(3.20072 1.8683 0)
(3.17371 1.91382 0)
(3.14606 1.95894 0)
(3.11777 2.00367 0)
(3.08884 2.04798 0)
(3.05928 2.09188 0)
(3.0291 2.13535 0)
(2.9983 2.17839 0)
(2.96688 2.22098 0)
(2.93487 2.26312 0)
(2.90225 2.3048 0)
(2.86904 2.34601 0)
(2.83525 2.38673 0)
(2.80088 2.42698 0)
(2.76594 2.46673 0)
(2.73043 2.50597 0)
(2.69437 2.5447 0)
(2.65776 2.58292 0)
(2.62061 2.62061 0)
(2.58292 2.65776 0)
(2.5447 2.69437 0)
(2.50597 2.73043 0)
(2.46673 2.76594 0)
(2.42698 2.80088 0)
(2.38673 2.83525 0)
(2.34601 2.86904 0)
(2.3048 2.90225 0)
(2.26312 2.93487 0)
(2.22098 2.96688 0)
(2.17839 2.9983 0)
(2.13535 3.0291 0)
(2.09188 3.05928 0)
(2.04798 3.08884 0)
(2.00367 3.11777 0)
(1.95894 3.14606 0)
(1.91382 3.17371 0)
(1.8683 3.20072 0)
(1.82241 3.22707 0)
(1.77614 3.25276 0)
(1.72951 3.27779 0)
(1.68253 3.30216 0)
(1.63521 3.32585 0)
(1.58755 3.34886 0)
(1.53957 3.37118 0)
(1.49127 3.39282 0)
(1.44267 3.41377 0)
(1.39378 3.43403 0)
(1.3446 3.45358 0)
(1.29515 3.47243 0)
(1.24543 3.49057 0)
(1.19546 3.50799 0)
(1.14525 3.52471 0)
(1.0948 3.5407 0)
(1.04413 3.55597 0)
(0.993244 3.57052 0)
(0.942158 3.58434 0)
(0.890879 3.59743 0)
(0.839419 3.60978 0)
(0.787788 3.6214 0)
(0.735996 3.63228 0)
(0.684053 3.64242 0)
(0.631972 3.65182 0)
(0.579761 3.66047 0)
(0.527433 3.66837 0)
(0.474996 3.67553 0)
(0.422463 3.68194 0)
(0.369844 3.6876 0)
(0.317149 3.6925 0)
(0.26439 3.69665 0)
(0.211577 3.70005 0)
(0.15872 3.7027 0)
(0.105831 3.70459 0)
(0.0529211 3.70572 0)
(0 3.7053 0)
(0 3.70458 0)
(0 3.70396 0)
(0 3.70341 0)
(0 3.70295 0)
(0 3.70257 0)
(0 3.70228 0)
(0 3.70208 0)
(0 3.70196 0)
(0 3.70194 0)
(0 3.702 0)
(0 3.70216 0)
(0 3.70241 0)
(0 3.70276 0)
(0 3.7032 0)
(0 3.70374 0)
(0 3.70438 0)
(0 3.70512 0)
(0 3.70595 0)
(0 3.70689 0)
(0 3.70794 0)
(0 3.70909 0)
(0 3.71034 0)
(0 3.71171 0)
(0 3.71318 0)
(0 3.71476 0)
(0 3.71646 0)
(0 3.71827 0)
(0 3.7202 0)
(0 3.72224 0)
(0 3.7244 0)
(0 3.72668 0)
(0 3.72909 0)
(0 3.73161 0)
(0 3.73427 0)
(0 3.73705 0)
(0 3.73996 0)
(0 3.743 0)
(0 3.74617 0)
(0 3.74948 0)
(0 3.75292 0)
(0 3.7565 0)
(0 3.76022 0)
(0 3.76409 0)
(0 3.7681 0)
(0 3.77225 0)
(0 3.77656 0)
(0 3.78101 0)
(0 3.78562 0)
(0 3.79038 0)
(0 3.7953 0)
(0 3.80038 0)
(0 3.80562 0)
(0 3.81102 0)
(0 3.81659 0)
(0 3.82233 0)
(0 3.82824 0)
(0 3.83433 0)
(0 3.84059 0)
(0 3.84703 0)
(0 3.85365 0)
(0 3.86046 0)
(0 3.86745 0)
(0 3.87464 0)
(0 3.88201 0)
(0 3.88959 0)
(0 3.89736 0)
(0 3.90533 0)
(0 3.9135 0)
(0 3.92189 0)
(0 3.93048 0)
(0 3.93928 0)
(0 3.94831 0)
(0 3.95755 0)
(0 3.96702 0)
(0 3.97671 0)
(0 3.98663 0)
(0 3.99679 0)
(0 4.00718 0)
(0 4.01781 0)
(0 4.02868 0)
(0 4.03981 0)
(0 4.05118 0)
(0 4.06281 0)
(0 4.07469 0)
(0 4.08684 0)
(0 4.09926 0)
(0 4.11194 0)
(0 4.1249 0)
(0 4.13814 0)
(0 4.15165 0)
(0 4.16546 0)
(0 4.17955 0)
(0 4.19394 0)
(0 4.20863 0)
(0 4.22362 0)
(0 4.23892 0)
(0 4.25453 0)
(0 4.27045 0)
(0 4.2867 0)
(0 4.30327 0)
(0 4.32017 0)
(0 4.33741 0)
(0 4.35498 0)
(0 4.3729 0)
(0 4.39116 0)
(0 4.40978 0)
(0 4.42876 0)
(0 4.4481 0)
(0 4.46781 0)
(0 4.48789 0)
(0 4.50835 0)
(0 4.52918 0)
(0 4.55043 0)
(0 4.57201 0)
(0 4.59409 0)
(0.0659218 4.61607 0)
(0.13183 4.61466 0)
(0.197712 4.6123 0)
(0.263553 4.60901 0)
(0.32934 4.60478 0)
(0.39506 4.5996 0)
(0.4607 4.59349 0)
(0.526246 4.58645 0)
(0.591684 4.57846 0)
(0.657002 4.56955 0)
(0.722186 4.5597 0)
(0.787222 4.54892 0)
(0.852098 4.53722 0)
(0.9168 4.52459 0)
(0.981316 4.51104 0)
(1.04563 4.49656 0)
(1.10973 4.48117 0)
(1.17361 4.46487 0)
(1.23725 4.44766 0)
(1.30063 4.42954 0)
(1.36375 4.41051 0)
(1.42659 4.39059 0)
(1.48914 4.36977 0)
(1.55138 4.34806 0)
(1.61331 4.32546 0)
(1.67492 4.30199 0)
(1.73618 4.27763 0)
(1.79708 4.2524 0)
(1.85762 4.22631 0)
(1.91778 4.19935 0)
(1.97755 4.17154 0)
(2.03691 4.14287 0)
(2.09586 4.11337 0)
(2.15439 4.08302 0)
(2.21247 4.05184 0)
(2.2701 4.01983 0)
(2.32727 3.98701 0)
(2.38397 3.95337 0)
(2.44018 3.91892 0)
(2.49589 3.88368 0)
(2.55109 3.84764 0)
(2.60577 3.81082 0)
(2.65992 3.77322 0)
(2.71353 3.73486 0)
(2.76659 3.69573 0)
(2.81908 3.65585 0)
(2.871 3.61522 0)
(2.92233 3.57385 0)
(2.97306 3.53176 0)
(3.02319 3.48895 0)
(3.0727 3.44542 0)
(3.12159 3.40119 0)
(3.16984 3.35627 0)
(3.21744 3.31067 0)
(3.26439 3.26439 0)
(3.31067 3.21744 0)
(3.35627 3.16984 0)
(3.40119 3.12159 0)
(3.44542 3.0727 0)
(3.48895 3.02319 0)
(3.53176 2.97306 0)
(3.57385 2.92233 0)
(3.61522 2.871 0)
(3.65585 2.81908 0)
(3.69573 2.76659 0)
(3.73486 2.71353 0)
(3.77322 2.65992 0)
(3.81082 2.60577 0)
(3.84764 2.55109 0)
(3.88368 2.49589 0)
(3.91892 2.44018 0)
(3.95337 2.38397 0)
(3.98701 2.32727 0)
(4.01983 2.2701 0)
(4.05184 2.21247 0)
(4.08302 2.15439 0)
(4.11337 2.09586 0)
(4.14287 2.03691 0)
(4.17154 1.97755 0)
(4.19935 1.91778 0)
(4.22631 1.85762 0)
(4.2524 1.79708 0)
(4.27763 1.73617 0)
(4.30199 1.67492 0)
(4.32546 1.61331 0)
(4.34806 1.55138 0)
(4.36977 1.48914 0)
(4.39059 1.42659 0)
(4.41051 1.36375 0)
(4.42954 1.30063 0)
(4.44766 1.23725 0)
(4.46487 1.17361 0)
(4.48117 1.10973 0)
(4.49656 1.04563 0)
(4.51104 0.981316 0)
(4.52459 0.9168 0)
(4.53722 0.852098 0)
(4.54892 0.787222 0)
(4.5597 0.722186 0)
(4.56955 0.657002 0)
(4.57846 0.591684 0)
(4.58645 0.526246 0)
(4.59349 0.4607 0)
(4.5996 0.39506 0)
(4.60478 0.32934 0)
(4.60901 0.263553 0)
(4.6123 0.197712 0)
(4.61466 0.13183 0)
(4.61607 0.0659218 0)
(4.59409 0 0)
(4.57201 0 0)
(4.55043 0 0)
(4.52918 0 0)
(4.50835 0 0)
(4.48789 0 0)
(4.46781 0 0)
(4.4481 0 0)
(4.42876 0 0)
(4.40978 0 0)
(4.39116 0 0)
(4.3729 0 0)
(4.35498 0 0)
(4.33741 0 0)
(4.32017 0 0)
(4.30327 0 0)
(4.2867 0 0)
(4.27045 0 0)
(4.25453 0 0)
(4.23892 0 0)
(4.22362 0 0)
(4.20863 0 0)
(4.19394 0 0)
(4.17955 0 0)
(4.16546 0 0)
(4.15165 0 0)
(4.13814 0 0)
(4.1249 0 0)
(4.11194 0 0)
(4.09926 0 0)
(4.08684 0 0)
(4.07469 0 0)
(4.06281 0 0)
(4.05118 0 0)
(4.03981 0 0)
(4.02868 0 0)
(4.01781 0 0)
(4.00718 0 0)
(3.99679 0 0)
(3.98663 0 0)
(3.97671 0 0)
(3.96702 0 0)
(3.95755 0 0)
(3.94831 0 0)
(3.93928 0 0)
(3.93048 0 0)
(3.92189 0 0)
(3.9135 0 0)
(3.90533 0 0)
(3.89736 0 0)
(3.88959 0 0)
(3.88201 0 0)
(3.87464 0 0)
(3.86745 0 0)
(3.86046 0 0)
(3.85365 0 0)
(3.84703 0 0)
(3.84059 0 0)
(3.83433 0 0)
(3.82824 0 0)
(3.82233 0 0)
(3.81659 0 0)
(3.81102 0 0)
(3.80562 0 0)
(3.80038 0 0)
(3.7953 0 0)
(3.79038 0 0)
(3.78562 0 0)
(3.78101 0 0)
(3.77656 0 0)
(3.77225 0 0)
(3.7681 0 0)
(3.76409 0 0)
(3.76022 0 0)
(3.7565 0 0)
(3.75292 0 0)
(3.74948 0 0)
(3.74617 0 0)
(3.743 0 0)
(3.73996 0 0)
(3.73705 0 0)
(3.73427 0 0)
(3.73161 0 0)
(3.72909 0 0)
(3.72668 0 0)
(3.7244 0 0)
(3.72224 0 0)
(3.7202 0 0)
(3.71827 0 0)
(3.71646 0 0)
(3.71476 0 0)
(3.71318 0 0)
(3.71171 0 0)
(3.71034 0 0)
(3.70909 0 0)
(3.70794 0 0)
(3.70689 0 0)
(3.70595 0 0)
(3.70512 0 0)
(3.70438 0 0)
(3.70374 0 0)
(3.7032 0 0)
(3.70276 0 0)
(3.70241 0 0)
(3.70216 0 0)
(3.702 0 0)
(3.70194 0 0)
(3.70196 0 0)
(3.70208 0 0)
(3.70228 0 0)
(3.70257 0 0)
(3.70295 0 0)
(3.70341 0 0)
(3.70396 0 0)
(3.70458 0 0)
(3.7053 0 0)
(3.70572 0.0529211 0)
(3.70459 0.105831 0)
(3.7027 0.15872 0)
(3.70005 0.211577 0)
(3.69665 0.26439 0)
(3.6925 0.317149 0)
(3.6876 0.369844 0)
(3.68194 0.422463 0)
(3.67553 0.474996 0)
(3.66837 0.527433 0)
(3.66047 0.579761 0)
(3.65182 0.631972 0)
(3.64242 0.684053 0)
(3.63228 0.735996 0)
(3.6214 0.787788 0)
(3.60978 0.839419 0)
(3.59743 0.890879 0)
(3.58434 0.942158 0)
(3.57052 0.993244 0)
(3.55597 1.04413 0)
(3.5407 1.0948 0)
(3.52471 1.14525 0)
(3.50799 1.19546 0)
(3.49057 1.24543 0)
(3.47243 1.29515 0)
(3.45358 1.3446 0)
(3.43403 1.39378 0)
(3.41377 1.44267 0)
(3.39282 1.49127 0)
(3.37118 1.53957 0)
(3.34886 1.58755 0)
(3.32585 1.63521 0)
(3.30216 1.68253 0)
(3.27779 1.72951 0)
(3.25276 1.77614 0)
(3.22707 1.82241 0)
(3.20072 1.8683 0)
(3.17371 1.91382 0)
(3.14606 1.95894 0)
(3.11777 2.00367 0)
(3.08884 2.04798 0)
(3.05928 2.09188 0)
(3.0291 2.13535 0)
(2.9983 2.17839 0)
(2.96688 2.22098 0)
(2.93487 2.26312 0)
(2.90225 2.3048 0)
(2.86904 2.34601 0)
(2.83525 2.38673 0)
(2.80088 2.42698 0)
(2.76594 2.46673 0)
(2.73043 2.50597 0)
(2.69437 2.5447 0)
(2.65776 2.58292 0)
(2.62061 2.62061 0)
(2.58292 2.65776 0)
(2.5447 2.69437 0)
(2.50597 2.73043 0)
(2.46673 2.76594 0)
(2.42698 2.80088 0)
(2.38673 2.83525 0)
(2.34601 2.86904 0)
(2.3048 2.90225 0)
(2.26312 2.93487 0)
(2.22098 2.96688 0)
(2.17839 2.9983 0)
(2.13535 3.0291 0)
(2.09188 3.05928 0)
(2.04798 3.08884 0)
(2.00367 3.11777 0)
(1.95894 3.14606 0)
(1.91382 3.17371 0)
(1.8683 3.20072 0)
(1.82241 3.22707 0)
(1.77614 3.25276 0)
(1.72951 3.27779 0)
(1.68253 3.30216 0)
(1.63521 3.32585 0)
(1.58755 3.34886 0)
(1.53957 3.37118 0)
(1.49127 3.39282 0)
(1.44267 3.41377 0)
(1.39378 3.43403 0)
(1.3446 3.45358 0)
(1.29515 3.47243 0)
(1.24543 3.49057 0)
(1.19546 3.50799 0)
(1.14525 3.52471 0)
(1.0948 3.5407 0)
(1.04413 3.55597 0)
(0.993244 3.57052 0)
(0.942158 3.58434 0)
(0.890879 3.59743 0)
(0.839419 3.60978 0)
(0.787788 3.6214 0)
(0.735996 3.63228 0)
(0.684053 3.64242 0)
(0.631972 3.65182 0)
(0.579761 3.66047 0)
(0.527433 3.66837 0)
(0.474996 3.67553 0)
(0.422463 3.68194 0)
(0.369844 3.6876 0)
(0.317149 3.6925 0)
(0.26439 3.69665 0)
(0.211577 3.70005 0)
(0.15872 3.7027 0)
(0.105831 3.70459 0)
(0.0529211 3.70572 0)
(0 3.7053 0)
(0 3.70458 0)
(0 3.70396 0)
(0 3.70341 0)
(0 3.70295 0)
(0 3.70257 0)
(0 3.70228 0)
(0 3.70208 0)
(0 3.70196 0)
(0 3.70194 0)
(0 3.702 0)
(0 3.70216 0)
(0 3.70241 0)
(0 3.70276 0)
(0 3.7032 0)
(0 3.70374 0)
(0 3.70438 0)
(0 3.70512 0)
(0 3.70595 0)
(0 3.70689 0)
(0 3.70794 0)
(0 3.70909 0)
(0 3.71034 0)
(0 3.71171 0)
(0 3.71318 0)
(0 3.71476 0)
(0 3.71646 0)
(0 3.71827 0)
(0 3.7202 0)
(0 3.72224 0)
(0 3.7244 0)
(0 3.72668 0)
(0 3.72909 0)
(0 3.73161 0)
(0 3.73427 0)
(0 3.73705 0)
(0 3.73996 0)
(0 3.743 0)
(0 3.74617 0)
(0 3.74948 0)
(0 3.75292 0)
(0 3.7565 0)
(0 3.76022 0)
(0 3.76409 0)
(0 3.7681 0)
(0 3.77225 0)
(0 3.77656 0)
(0 3.78101 0)
(0 3.78562 0)
(0 3.79038 0)
(0 3.7953 0)
(0 3.80038 0)
(0 3.80562 0)
(0 3.81102 0)
(0 3.81659 0)
(0 3.82233 0)
(0 3.82824 0)
(0 3.83433 0)
(0 3.84059 0)
(0 3.84703 0)
(0 3.85365 0)
(0 3.86046 0)
(0 3.86745 0)
(0 3.87464 0)
(0 3.88201 0)
(0 3.88959 0)
(0 3.89736 0)
(0 3.90533 0)
(0 3.9135 0)
(0 3.92189 0)
(0 3.93048 0)
(0 3.93928 0)
(0 3.94831 0)
(0 3.95755 0)
(0 3.96702 0)
(0 3.97671 0)
(0 3.98663 0)
(0 3.99679 0)
(0 4.00718 0)
(0 4.01781 0)
(0 4.02868 0)
(0 4.03981 0)
(0 4.05118 0)
(0 4.06281 0)
(0 4.07469 0)
(0 4.08684 0)
(0 4.09926 0)
(0 4.11194 0)
(0 4.1249 0)
(0 4.13814 0)
(0 4.15165 0)
(0 4.16546 0)
(0 4.17955 0)
(0 4.19394 0)
(0 4.20863 0)
(0 4.22362 0)
(0 4.23892 0)
(0 4.25453 0)
(0 4.27045 0)
(0 4.2867 0)
(0 4.30327 0)
(0 4.32017 0)
(0 4.33741 0)
(0 4.35498 0)
(0 4.3729 0)
(0 4.39116 0)
(0 4.40978 0)
(0 4.42876 0)
(0 4.4481 0)
(0 4.46781 0)
(0 4.48789 0)
(0 4.50835 0)
(0 4.52918 0)
(0 4.55043 0)
(0 4.57201 0)
(0 4.59409 0)
(0.0659218 4.61607 0)
(0.13183 4.61466 0)
(0.197712 4.6123 0)
(0.263553 4.60901 0)
(0.32934 4.60478 0)
(0.39506 4.5996 0)
(0.4607 4.59349 0)
(0.526246 4.58645 0)
(0.591684 4.57846 0)
(0.657002 4.56955 0)
(0.722186 4.5597 0)
(0.787222 4.54892 0)
(0.852098 4.53722 0)
(0.9168 4.52459 0)
(0.981316 4.51104 0)
(1.04563 4.49656 0)
(1.10973 4.48117 0)
(1.17361 4.46487 0)
(1.23725 4.44766 0)
(1.30063 4.42954 0)
(1.36375 4.41051 0)
(1.42659 4.39059 0)
(1.48914 4.36977 0)
(1.55138 4.34806 0)
(1.61331 4.32546 0)
(1.67492 4.30199 0)
(1.73618 4.27763 0)
(1.79708 4.2524 0)
(1.85762 4.22631 0)
(1.91778 4.19935 0)
(1.97755 4.17154 0)
(2.03691 4.14287 0)
(2.09586 4.11337 0)
(2.15439 4.08302 0)
(2.21247 4.05184 0)
(2.2701 4.01983 0)
(2.32727 3.98701 0)
(2.38397 3.95337 0)
(2.44018 3.91892 0)
(2.49589 3.88368 0)
(2.55109 3.84764 0)
(2.60577 3.81082 0)
(2.65992 3.77322 0)
(2.71353 3.73486 0)
(2.76659 3.69573 0)
(2.81908 3.65585 0)
(2.871 3.61522 0)
(2.92233 3.57385 0)
(2.97306 3.53176 0)
(3.02319 3.48895 0)
(3.0727 3.44542 0)
(3.12159 3.40119 0)
(3.16984 3.35627 0)
(3.21744 3.31067 0)
(3.26439 3.26439 0)
(3.31067 3.21744 0)
(3.35627 3.16984 0)
(3.40119 3.12159 0)
(3.44542 3.0727 0)
(3.48895 3.02319 0)
(3.53176 2.97306 0)
(3.57385 2.92233 0)
(3.61522 2.871 0)
(3.65585 2.81908 0)
(3.69573 2.76659 0)
(3.73486 2.71353 0)
(3.77322 2.65992 0)
(3.81082 2.60577 0)
(3.84764 2.55109 0)
(3.88368 2.49589 0)
(3.91892 2.44018 0)
(3.95337 2.38397 0)
(3.98701 2.32727 0)
(4.01983 2.2701 0)
(4.05184 2.21247 0)
(4.08302 2.15439 0)
(4.11337 2.09586 0)
(4.14287 2.03691 0)
(4.17154 1.97755 0)
(4.19935 1.91778 0)
(4.22631 1.85762 0)
(4.2524 1.79708 0)
(4.27763 1.73617 0)
(4.30199 1.67492 0)
(4.32546 1.61331 0)
(4.34806 1.55138 0)
(4.36977 1.48914 0)
(4.39059 1.42659 0)
(4.41051 1.36375 0)
(4.42954 1.30063 0)
(4.44766 1.23725 0)
(4.46487 1.17361 0)
(4.48117 1.10973 0)
(4.49656 1.04563 0)
(4.51104 0.981316 0)
(4.52459 0.9168 0)
(4.53722 0.852098 0)
(4.54892 0.787222 0)
(4.5597 0.722186 0)
(4.56955 0.657002 0)
(4.57846 0.591684 0)
(4.58645 0.526246 0)
(4.59349 0.4607 0)
(4.5996 0.39506 0)
(4.60478 0.32934 0)
(4.60901 0.263553 0)
(4.6123 0.197712 0)
(4.61466 0.13183 0)
(4.61607 0.0659218 0)
(4.59363 0.0656013 0)
(4.59222 0.131189 0)
(4.58988 0.19675 0)
(4.5866 0.262271 0)
(4.58239 0.327739 0)
(4.57724 0.39314 0)
(4.57116 0.45846 0)
(4.56415 0.523687 0)
(4.5562 0.588807 0)
(4.54733 0.653808 0)
(4.53753 0.718675 0)
(4.52681 0.783395 0)
(4.51516 0.847956 0)
(4.50259 0.912343 0)
(4.4891 0.976545 0)
(4.4747 1.04055 0)
(4.45939 1.10434 0)
(4.44316 1.1679 0)
(4.42603 1.23123 0)
(4.408 1.29431 0)
(4.38907 1.35712 0)
(4.36924 1.41965 0)
(4.34853 1.4819 0)
(4.32692 1.54384 0)
(4.30443 1.60547 0)
(4.28107 1.66677 0)
(4.25683 1.72773 0)
(4.23173 1.78834 0)
(4.20576 1.84859 0)
(4.17893 1.90846 0)
(4.15126 1.96793 0)
(4.12273 2.02701 0)
(4.09337 2.08567 0)
(4.06317 2.14391 0)
(4.03214 2.20171 0)
(4.00029 2.25907 0)
(3.96762 2.31596 0)
(3.93415 2.37238 0)
(3.89987 2.42831 0)
(3.8648 2.48375 0)
(3.82894 2.53869 0)
(3.7923 2.59311 0)
(3.75488 2.64699 0)
(3.7167 2.70034 0)
(3.67776 2.75314 0)
(3.63807 2.80537 0)
(3.59764 2.85704 0)
(3.55648 2.90812 0)
(3.51459 2.95861 0)
(3.47198 3.00849 0)
(3.42867 3.05776 0)
(3.38466 3.10641 0)
(3.33995 3.15443 0)
(3.29457 3.2018 0)
(3.24851 3.24851 0)
(3.2018 3.29457 0)
(3.15443 3.33995 0)
(3.10641 3.38466 0)
(3.05776 3.42867 0)
(3.00849 3.47198 0)
(2.95861 3.51459 0)
(2.90812 3.55648 0)
(2.85704 3.59764 0)
(2.80537 3.63807 0)
(2.75314 3.67776 0)
(2.70034 3.7167 0)
(2.64699 3.75488 0)
(2.59311 3.7923 0)
(2.53869 3.82894 0)
(2.48375 3.8648 0)
(2.42831 3.89987 0)
(2.37238 3.93415 0)
(2.31596 3.96762 0)
(2.25907 4.00029 0)
(2.20171 4.03214 0)
(2.14391 4.06317 0)
(2.08567 4.09337 0)
(2.02701 4.12273 0)
(1.96793 4.15126 0)
(1.90846 4.17893 0)
(1.84859 4.20576 0)
(1.78834 4.23173 0)
(1.72773 4.25683 0)
(1.66677 4.28107 0)
(1.60547 4.30443 0)
(1.54384 4.32692 0)
(1.4819 4.34853 0)
(1.41965 4.36924 0)
(1.35712 4.38907 0)
(1.29431 4.408 0)
(1.23123 4.42603 0)
(1.1679 4.44316 0)
(1.10434 4.45939 0)
(1.04055 4.4747 0)
(0.976545 4.4891 0)
(0.912343 4.50259 0)
(0.847956 4.51516 0)
(0.783395 4.52681 0)
(0.718675 4.53753 0)
(0.653808 4.54733 0)
(0.588807 4.5562 0)
(0.523687 4.56415 0)
(0.45846 4.57116 0)
(0.39314 4.57724 0)
(0.327739 4.58239 0)
(0.262271 4.5866 0)
(0.19675 4.58988 0)
(0.131189 4.59222 0)
(0.0656013 4.59363 0)
(4.57155 0.065286 0)
(4.57015 0.130559 0)
(4.56782 0.195805 0)
(4.56456 0.261011 0)
(4.56036 0.326164 0)
(4.55524 0.39125 0)
(4.54919 0.456257 0)
(4.54221 0.52117 0)
(4.5343 0.585977 0)
(4.52548 0.650665 0)
(4.51572 0.71522 0)
(4.50505 0.779629 0)
(4.49346 0.84388 0)
(4.48095 0.907958 0)
(4.46753 0.971851 0)
(4.45319 1.03555 0)
(4.43795 1.09903 0)
(4.42181 1.16229 0)
(4.40476 1.22531 0)
(4.38681 1.28808 0)
(4.36797 1.35059 0)
(4.34824 1.41283 0)
(4.32762 1.47478 0)
(4.30612 1.53642 0)
(4.28375 1.59775 0)
(4.26049 1.65876 0)
(4.23637 1.71943 0)
(4.21139 1.77975 0)
(4.18554 1.8397 0)
(4.15885 1.89928 0)
(4.1313 1.95847 0)
(4.10292 2.01727 0)
(4.07369 2.07565 0)
(4.04364 2.13361 0)
(4.01276 2.19113 0)
(3.98106 2.24821 0)
(3.94855 2.30483 0)
(3.91524 2.36098 0)
(3.88113 2.41664 0)
(3.84622 2.47182 0)
(3.81053 2.52649 0)
(3.77407 2.58064 0)
(3.73683 2.63427 0)
(3.69884 2.68736 0)
(3.66008 2.7399 0)
(3.62059 2.79189 0)
(3.58035 2.8433 0)
(3.53938 2.89414 0)
(3.4977 2.94439 0)
(3.4553 2.99403 0)
(3.41219 3.04307 0)
(3.36839 3.09148 0)
(3.3239 3.13926 0)
(3.27874 3.18641 0)
(3.2329 3.2329 0)
(3.18641 3.27874 0)
(3.13926 3.3239 0)
(3.09148 3.36839 0)
(3.04307 3.41219 0)
(2.99403 3.4553 0)
(2.94439 3.4977 0)
(2.89414 3.53938 0)
(2.8433 3.58035 0)
(2.79189 3.62059 0)
(2.7399 3.66008 0)
(2.68736 3.69884 0)
(2.63427 3.73683 0)
(2.58064 3.77407 0)
(2.52649 3.81053 0)
(2.47182 3.84622 0)
(2.41664 3.88113 0)
(2.36098 3.91524 0)
(2.30483 3.94855 0)
(2.24821 3.98106 0)
(2.19113 4.01276 0)
(2.13361 4.04364 0)
(2.07565 4.07369 0)
(2.01727 4.10292 0)
(1.95847 4.1313 0)
(1.89928 4.15885 0)
(1.8397 4.18554 0)
(1.77975 4.21139 0)
(1.71943 4.23637 0)
(1.65876 4.26049 0)
(1.59775 4.28375 0)
(1.53642 4.30612 0)
(1.47478 4.32762 0)
(1.41283 4.34824 0)
(1.35059 4.36797 0)
(1.28808 4.38681 0)
(1.22531 4.40476 0)
(1.16229 4.42181 0)
(1.09903 4.43795 0)
(1.03555 4.45319 0)
(0.971851 4.46753 0)
(0.907958 4.48095 0)
(0.84388 4.49346 0)
(0.779629 4.50505 0)
(0.71522 4.51572 0)
(0.650665 4.52548 0)
(0.585977 4.5343 0)
(0.52117 4.54221 0)
(0.456257 4.54919 0)
(0.39125 4.55524 0)
(0.326164 4.56036 0)
(0.261011 4.56456 0)
(0.195805 4.56782 0)
(0.130559 4.57015 0)
(0.065286 4.57155 0)
(4.54997 0.0649778 0)
(4.54857 0.129942 0)
(4.54626 0.19488 0)
(4.54301 0.259779 0)
(4.53884 0.324624 0)
(4.53374 0.389403 0)
(4.52772 0.454103 0)
(4.52077 0.51871 0)
(4.5129 0.583211 0)
(4.50411 0.647594 0)
(4.49441 0.711844 0)
(4.48378 0.775949 0)
(4.47225 0.839896 0)
(4.4598 0.903672 0)
(4.44644 0.967263 0)
(4.43217 1.03066 0)
(4.417 1.09384 0)
(4.40093 1.1568 0)
(4.38397 1.21953 0)
(4.36611 1.282 0)
(4.34735 1.34422 0)
(4.32772 1.40616 0)
(4.3072 1.46781 0)
(4.2858 1.52917 0)
(4.26352 1.59021 0)
(4.24038 1.65093 0)
(4.21638 1.71131 0)
(4.19151 1.77135 0)
(4.16579 1.83102 0)
(4.13922 1.89032 0)
(4.1118 1.94923 0)
(4.08355 2.00775 0)
(4.05446 2.06585 0)
(4.02455 2.12354 0)
(3.99382 2.18079 0)
(3.96227 2.2376 0)
(3.92991 2.29395 0)
(3.89676 2.34983 0)
(3.8628 2.40523 0)
(3.82807 2.46015 0)
(3.79255 2.51456 0)
(3.75625 2.56846 0)
(3.71919 2.62183 0)
(3.68138 2.67468 0)
(3.64281 2.72697 0)
(3.6035 2.77871 0)
(3.56345 2.82988 0)
(3.52268 2.88048 0)
(3.48119 2.93049 0)
(3.43899 2.9799 0)
(3.39608 3.0287 0)
(3.35249 3.07689 0)
(3.30821 3.12444 0)
(3.26326 3.17137 0)
(3.21764 3.21764 0)
(3.17137 3.26326 0)
(3.12444 3.30821 0)
(3.07689 3.35249 0)
(3.0287 3.39608 0)
(2.9799 3.43899 0)
(2.93049 3.48119 0)
(2.88048 3.52268 0)
(2.82988 3.56345 0)
(2.77871 3.6035 0)
(2.72697 3.64281 0)
(2.67468 3.68138 0)
(2.62183 3.71919 0)
(2.56846 3.75625 0)
(2.51456 3.79255 0)
(2.46015 3.82807 0)
(2.40523 3.8628 0)
(2.34983 3.89676 0)
(2.29395 3.92991 0)
(2.2376 3.96227 0)
(2.18079 3.99382 0)
(2.12354 4.02455 0)
(2.06585 4.05446 0)
(2.00775 4.08355 0)
(1.94923 4.1118 0)
(1.89032 4.13922 0)
(1.83102 4.16579 0)
(1.77135 4.19151 0)
(1.71131 4.21638 0)
(1.65093 4.24038 0)
(1.59021 4.26352 0)
(1.52917 4.2858 0)
(1.46781 4.3072 0)
(1.40616 4.32772 0)
(1.34422 4.34735 0)
(1.282 4.36611 0)
(1.21953 4.38397 0)
(1.1568 4.40093 0)
(1.09384 4.417 0)
(1.03066 4.43217 0)
(0.967263 4.44644 0)
(0.903672 4.4598 0)
(0.839896 4.47225 0)
(0.775949 4.48378 0)
(0.711844 4.49441 0)
(0.647594 4.50411 0)
(0.583211 4.5129 0)
(0.51871 4.52077 0)
(0.454103 4.52772 0)
(0.389403 4.53374 0)
(0.324624 4.53884 0)
(0.259779 4.54301 0)
(0.19488 4.54626 0)
(0.129942 4.54857 0)
(0.0649778 4.54997 0)
(4.52872 0.0646743 0)
(4.52733 0.129335 0)
(4.52502 0.19397 0)
(4.52179 0.258565 0)
(4.51764 0.323108 0)
(4.51257 0.387585 0)
(4.50657 0.451982 0)
(4.49966 0.516288 0)
(4.49183 0.580488 0)
(4.48308 0.644569 0)
(4.47342 0.70852 0)
(4.46284 0.772326 0)
(4.45136 0.835974 0)
(4.43897 0.899452 0)
(4.42567 0.962746 0)
(4.41148 1.02584 0)
(4.39638 1.08873 0)
(4.38038 1.1514 0)
(4.36349 1.21383 0)
(4.34572 1.27602 0)
(4.32705 1.33794 0)
(4.30751 1.39959 0)
(4.28708 1.46096 0)
(4.26578 1.52203 0)
(4.24361 1.58279 0)
(4.22058 1.64322 0)
(4.19669 1.70332 0)
(4.17193 1.76307 0)
(4.14633 1.82247 0)
(4.11989 1.88149 0)
(4.0926 1.94013 0)
(4.06448 1.99837 0)
(4.03553 2.0562 0)
(4.00576 2.11362 0)
(3.97517 2.1706 0)
(3.94377 2.22715 0)
(3.91156 2.28323 0)
(3.87856 2.33886 0)
(3.84477 2.394 0)
(3.81019 2.44866 0)
(3.77483 2.50282 0)
(3.73871 2.55646 0)
(3.70182 2.60959 0)
(3.66418 2.66219 0)
(3.6258 2.71424 0)
(3.58667 2.76573 0)
(3.54681 2.81667 0)
(3.50623 2.86703 0)
(3.46493 2.9168 0)
(3.42293 2.96598 0)
(3.38022 3.01456 0)
(3.33683 3.06252 0)
(3.29276 3.10985 0)
(3.24802 3.15656 0)
(3.20261 3.20261 0)
(3.15656 3.24802 0)
(3.10985 3.29276 0)
(3.06252 3.33683 0)
(3.01456 3.38022 0)
(2.96598 3.42293 0)
(2.9168 3.46493 0)
(2.86703 3.50623 0)
(2.81667 3.54681 0)
(2.76573 3.58667 0)
(2.71424 3.6258 0)
(2.66219 3.66418 0)
(2.60959 3.70182 0)
(2.55646 3.73871 0)
(2.50282 3.77483 0)
(2.44866 3.81019 0)
(2.394 3.84477 0)
(2.33886 3.87856 0)
(2.28323 3.91156 0)
(2.22715 3.94377 0)
(2.1706 3.97517 0)
(2.11362 4.00576 0)
(2.0562 4.03553 0)
(1.99837 4.06448 0)
(1.94013 4.0926 0)
(1.88149 4.11989 0)
(1.82247 4.14633 0)
(1.76307 4.17193 0)
(1.70332 4.19669 0)
(1.64322 4.22058 0)
(1.58279 4.24361 0)
(1.52203 4.26578 0)
(1.46096 4.28708 0)
(1.39959 4.30751 0)
(1.33794 4.32705 0)
(1.27602 4.34572 0)
(1.21383 4.36349 0)
(1.1514 4.38038 0)
(1.08873 4.39638 0)
(1.02584 4.41148 0)
(0.962746 4.42567 0)
(0.899452 4.43897 0)
(0.835974 4.45136 0)
(0.772326 4.46284 0)
(0.70852 4.47342 0)
(0.644569 4.48308 0)
(0.580488 4.49183 0)
(0.516288 4.49966 0)
(0.451982 4.50657 0)
(0.387585 4.51257 0)
(0.323108 4.51764 0)
(0.258565 4.52179 0)
(0.19397 4.52502 0)
(0.129335 4.52733 0)
(0.0646743 4.52872 0)
(4.50789 0.0643769 0)
(4.50651 0.128741 0)
(4.50422 0.193078 0)
(4.501 0.257376 0)
(4.49687 0.321622 0)
(4.49181 0.385802 0)
(4.48585 0.449904 0)
(4.47897 0.513913 0)
(4.47117 0.577818 0)
(4.46246 0.641605 0)
(4.45285 0.705262 0)
(4.44232 0.768774 0)
(4.43089 0.83213 0)
(4.41856 0.895316 0)
(4.40532 0.958319 0)
(4.39119 1.02113 0)
(4.37616 1.08373 0)
(4.36024 1.14611 0)
(4.34343 1.20825 0)
(4.32573 1.27015 0)
(4.30715 1.33179 0)
(4.2877 1.39316 0)
(4.26737 1.45424 0)
(4.24617 1.51503 0)
(4.2241 1.57551 0)
(4.20117 1.63567 0)
(4.17739 1.69549 0)
(4.15275 1.75497 0)
(4.12727 1.81409 0)
(4.10094 1.87284 0)
(4.07378 1.93121 0)
(4.04579 1.98918 0)
(4.01697 2.04675 0)
(3.98734 2.1039 0)
(3.95689 2.16062 0)
(3.92563 2.21691 0)
(3.89357 2.27274 0)
(3.86072 2.3281 0)
(3.82709 2.38299 0)
(3.79267 2.4374 0)
(3.75748 2.49131 0)
(3.72152 2.54471 0)
(3.6848 2.59759 0)
(3.64733 2.64994 0)
(3.60912 2.70176 0)
(3.57017 2.75302 0)
(3.5305 2.80372 0)
(3.4901 2.85384 0)
(3.449 2.90339 0)
(3.40719 2.95234 0)
(3.36468 3.0007 0)
(3.32149 3.04843 0)
(3.27762 3.09555 0)
(3.23308 3.14204 0)
(3.18789 3.18789 0)
(3.14204 3.23308 0)
(3.09555 3.27762 0)
(3.04843 3.32149 0)
(3.0007 3.36468 0)
(2.95234 3.40719 0)
(2.90339 3.449 0)
(2.85384 3.4901 0)
(2.80372 3.5305 0)
(2.75302 3.57017 0)
(2.70176 3.60912 0)
(2.64994 3.64733 0)
(2.59759 3.6848 0)
(2.54471 3.72152 0)
(2.49131 3.75748 0)
(2.4374 3.79267 0)
(2.38299 3.82709 0)
(2.3281 3.86072 0)
(2.27274 3.89357 0)
(2.21691 3.92563 0)
(2.16062 3.95689 0)
(2.1039 3.98734 0)
(2.04675 4.01697 0)
(1.98918 4.04579 0)
(1.93121 4.07378 0)
(1.87284 4.10094 0)
(1.81409 4.12727 0)
(1.75497 4.15275 0)
(1.69549 4.17739 0)
(1.63567 4.20117 0)
(1.57551 4.2241 0)
(1.51503 4.24617 0)
(1.45424 4.26737 0)
(1.39316 4.2877 0)
(1.33179 4.30715 0)
(1.27015 4.32573 0)
(1.20825 4.34343 0)
(1.14611 4.36024 0)
(1.08373 4.37616 0)
(1.02113 4.39119 0)
(0.958319 4.40532 0)
(0.895316 4.41856 0)
(0.83213 4.43089 0)
(0.768774 4.44232 0)
(0.705262 4.45285 0)
(0.641605 4.46246 0)
(0.577818 4.47117 0)
(0.513913 4.47897 0)
(0.449904 4.48585 0)
(0.385802 4.49181 0)
(0.321622 4.49687 0)
(0.257376 4.501 0)
(0.193078 4.50422 0)
(0.128741 4.50651 0)
(0.0643769 4.50789 0)
(4.48743 0.0640847 0)
(4.48606 0.128156 0)
(4.48377 0.192202 0)
(4.48057 0.256208 0)
(4.47645 0.320162 0)
(4.47142 0.384051 0)
(4.46548 0.447861 0)
(4.45863 0.511581 0)
(4.45087 0.575195 0)
(4.44221 0.638693 0)
(4.43263 0.70206 0)
(4.42216 0.765284 0)
(4.41078 0.828352 0)
(4.3985 0.891252 0)
(4.38532 0.953969 0)
(4.37126 1.01649 0)
(4.35629 1.07881 0)
(4.34045 1.1409 0)
(4.32371 1.20277 0)
(4.3061 1.26438 0)
(4.2876 1.32574 0)
(4.26823 1.38683 0)
(4.248 1.44764 0)
(4.22689 1.50815 0)
(4.20492 1.56836 0)
(4.1821 1.62824 0)
(4.15842 1.68779 0)
(4.1339 1.747 0)
(4.10853 1.80585 0)
(4.08233 1.86434 0)
(4.05529 1.92244 0)
(4.02742 1.98015 0)
(3.99874 2.03746 0)
(3.96924 2.09435 0)
(3.93892 2.15082 0)
(3.90781 2.20684 0)
(3.8759 2.26242 0)
(3.8432 2.31753 0)
(3.80971 2.37218 0)
(3.77545 2.42633 0)
(3.74042 2.48 0)
(3.70462 2.53316 0)
(3.66807 2.5858 0)
(3.63078 2.63791 0)
(3.59274 2.68949 0)
(3.55397 2.74052 0)
(3.51447 2.79099 0)
(3.47426 2.84089 0)
(3.43334 2.89021 0)
(3.39172 2.93894 0)
(3.34941 2.98707 0)
(3.30641 3.0346 0)
(3.26274 3.0815 0)
(3.21841 3.12778 0)
(3.17342 3.17342 0)
(3.12778 3.21841 0)
(3.0815 3.26274 0)
(3.0346 3.30641 0)
(2.98707 3.34941 0)
(2.93894 3.39172 0)
(2.89021 3.43334 0)
(2.84089 3.47426 0)
(2.79099 3.51447 0)
(2.74052 3.55397 0)
(2.68949 3.59274 0)
(2.63791 3.63078 0)
(2.5858 3.66807 0)
(2.53316 3.70462 0)
(2.48 3.74042 0)
(2.42633 3.77545 0)
(2.37218 3.80971 0)
(2.31753 3.8432 0)
(2.26242 3.8759 0)
(2.20684 3.90781 0)
(2.15082 3.93892 0)
(2.09435 3.96924 0)
(2.03746 3.99874 0)
(1.98015 4.02742 0)
(1.92244 4.05529 0)
(1.86434 4.08233 0)
(1.80585 4.10853 0)
(1.747 4.1339 0)
(1.68779 4.15842 0)
(1.62824 4.1821 0)
(1.56836 4.20492 0)
(1.50815 4.22689 0)
(1.44764 4.248 0)
(1.38683 4.26823 0)
(1.32574 4.2876 0)
(1.26438 4.3061 0)
(1.20277 4.32371 0)
(1.1409 4.34045 0)
(1.07881 4.35629 0)
(1.01649 4.37126 0)
(0.953969 4.38532 0)
(0.891252 4.3985 0)
(0.828352 4.41078 0)
(0.765284 4.42216 0)
(0.70206 4.43263 0)
(0.638693 4.44221 0)
(0.575195 4.45087 0)
(0.511581 4.45863 0)
(0.447861 4.46548 0)
(0.384051 4.47142 0)
(0.320162 4.47645 0)
(0.256208 4.48057 0)
(0.192202 4.48377 0)
(0.128156 4.48606 0)
(0.0640847 4.48743 0)
(4.46736 0.063798 0)
(4.46599 0.127583 0)
(4.46371 0.191342 0)
(4.46052 0.255062 0)
(4.45643 0.31873 0)
(4.45142 0.382333 0)
(4.44551 0.445858 0)
(4.43869 0.509292 0)
(4.43096 0.572622 0)
(4.42234 0.635836 0)
(4.4128 0.69892 0)
(4.40237 0.761861 0)
(4.39105 0.824647 0)
(4.37882 0.887265 0)
(4.36571 0.949702 0)
(4.3517 1.01194 0)
(4.33681 1.07398 0)
(4.32103 1.1358 0)
(4.30437 1.19739 0)
(4.28683 1.25873 0)
(4.26842 1.31981 0)
(4.24914 1.38063 0)
(4.22899 1.44116 0)
(4.20798 1.50141 0)
(4.18611 1.56134 0)
(4.16339 1.62096 0)
(4.13982 1.68024 0)
(4.11541 1.73919 0)
(4.09015 1.79777 0)
(4.06406 1.856 0)
(4.03715 1.91384 0)
(4.00941 1.97129 0)
(3.98085 2.02834 0)
(3.95148 2.08498 0)
(3.9213 2.14119 0)