/*--------------------------------*- C++ -*----------------------------------*\
| =========                 |                                                 |
| \\      /  F ield         | OpenFOAM: The Open Source CFD Toolbox           |
|  \\    /   O peration     | Version:  2312                                  |
|   \\  /    A nd           | Website:  www.openfoam.com                      |
|    \\/     M anipulation  |                                                 |
\*---------------------------------------------------------------------------*/
FoamFile
{
    version     2.0;
    format      ascii;
    arch        "LSB;label=32;scalar=64";
    class       volSymmTensorField;
    location    "90";
    object      sigma;
}
// * * * * * * * * * * * * * * * * * * * * * * * * * * * * * * * * * * * * * //

dimensions      [1 -1 -2 0 0 0 0];

internalField   nonuniform List<symmTensor> 
12870
(
(-8.84367e+07 -1.9538e+06 1.57773e-11 1.85187e+08 -4.2715e-09 -2.16572e+07)
(-8.83251e+07 -5.85981e+06 -2.13499e-09 1.85075e+08 2.0905e-09 -2.16572e+07)
(-8.81021e+07 -9.76104e+06 3.00588e-09 1.84852e+08 4.38158e-09 -2.16572e+07)
(-8.77677e+07 -1.36543e+07 1.14052e-10 1.84518e+08 -2.13271e-09 -2.16572e+07)
(-8.73222e+07 -1.75364e+07 -1.19087e-09 1.84072e+08 2.06354e-09 -2.16572e+07)
(-8.67661e+07 -2.14043e+07 3.16529e-09 1.83516e+08 2.49114e-10 -2.16572e+07)
(-8.60998e+07 -2.52546e+07 -8.53405e-10 1.8285e+08 -2.22442e-09 -2.16572e+07)
(-8.53238e+07 -2.90844e+07 1.89337e-09 1.82074e+08 2.35162e-09 -2.16572e+07)
(-8.44387e+07 -3.28905e+07 -5.17201e-10 1.81189e+08 4.24007e-09 -2.16572e+07)
(-8.34453e+07 -3.66697e+07 1.81085e-09 1.80196e+08 2.40273e-09 -2.16572e+07)
(-8.23444e+07 -4.0419e+07 2.41443e-09 1.79095e+08 -1.79523e-09 -2.16572e+07)
(-8.11369e+07 -4.41354e+07 2.43107e-09 1.77887e+08 -8.25664e-09 -2.16572e+07)
(-7.98238e+07 -4.78157e+07 -4.14203e-09 1.76574e+08 -7.47304e-10 -2.16572e+07)
(-7.84061e+07 -5.14571e+07 -1.08692e-09 1.75156e+08 -2.1217e-10 -2.16572e+07)
(-7.6885e+07 -5.50564e+07 -1.60602e-09 1.73635e+08 -2.51974e-09 -2.16572e+07)
(-7.52617e+07 -5.86109e+07 -3.48846e-09 1.72012e+08 5.78247e-09 -2.16572e+07)
(-7.35376e+07 -6.21176e+07 -5.05738e-10 1.70288e+08 2.07502e-09 -2.16572e+07)
(-7.1714e+07 -6.55736e+07 1.03024e-09 1.68464e+08 2.62953e-10 -2.16572e+07)
(-6.97925e+07 -6.89761e+07 1.57695e-09 1.66543e+08 -1.78594e-09 -2.16572e+07)
(-6.77746e+07 -7.23224e+07 5.94141e-10 1.64525e+08 -2.05146e-09 -2.16572e+07)
(-6.5662e+07 -7.56097e+07 0 1.62412e+08 0 -2.16572e+07)
(-6.34564e+07 -7.88353e+07 -1.65199e-09 1.60207e+08 1.71676e-09 -2.16572e+07)
(-6.11596e+07 -8.19966e+07 -1.34894e-09 1.5791e+08 4.05291e-09 -2.16572e+07)
(-5.87734e+07 -8.50911e+07 1.68644e-09 1.55524e+08 -1.67374e-09 -2.16572e+07)
(-5.62998e+07 -8.81161e+07 4.79097e-10 1.5305e+08 -4.37214e-09 -2.16572e+07)
(-5.37409e+07 -9.10693e+07 4.7958e-10 1.50491e+08 4.75402e-09 -2.16572e+07)
(-5.10987e+07 -9.39482e+07 3.51315e-09 1.47849e+08 -3.19995e-09 -2.16572e+07)
(-4.83753e+07 -9.67504e+07 -2.89226e-10 1.45126e+08 -4.74324e-09 -2.16572e+07)
(-4.55731e+07 -9.94738e+07 -1.00346e-09 1.42323e+08 -4.32534e-10 -2.16572e+07)
(-4.26942e+07 -1.02116e+08 -4.61729e-09 1.39444e+08 2.61178e-09 -2.16572e+07)
(-3.9741e+07 -1.04675e+08 -1.70297e-09 1.36491e+08 8.63021e-09 -2.16572e+07)
(-3.6716e+07 -1.07149e+08 1.844e-09 1.33466e+08 -3.853e-09 -2.16572e+07)
(-3.36215e+07 -1.09535e+08 2.49448e-11 1.30372e+08 -2.37589e-09 -2.16572e+07)
(-3.04602e+07 -1.11832e+08 -1.93361e-09 1.2721e+08 1.40314e-09 -2.16572e+07)
(-2.72346e+07 -1.14037e+08 1.94048e-09 1.23985e+08 -1.38235e-09 -2.16572e+07)
(-2.39473e+07 -1.1615e+08 1.13804e-10 1.20698e+08 -2.37979e-09 -2.16572e+07)
(-2.0601e+07 -1.18168e+08 2.11417e-09 1.17351e+08 -3.71163e-09 -2.16572e+07)
(-1.71985e+07 -1.20089e+08 3.6343e-10 1.13949e+08 -4.75114e-09 -2.16572e+07)
(-1.37425e+07 -1.21913e+08 -5.84563e-09 1.10493e+08 1.42752e-09 -2.16572e+07)
(-1.02358e+07 -1.23637e+08 -6.36438e-09 1.06986e+08 6.08273e-09 -2.16572e+07)
(-6.68135e+06 -1.2526e+08 1.75604e-09 1.03432e+08 1.14634e-09 -2.16572e+07)
(-3.08196e+06 -1.26781e+08 2.4422e-11 9.98322e+07 1.64446e-11 -2.16572e+07)
(559392 -1.28199e+08 -7.01447e-10 9.61908e+07 4.71311e-09 -2.16572e+07)
(4.23975e+06 -1.29512e+08 2.47402e-09 9.25105e+07 -3.48212e-09 -2.16572e+07)
(7.9561e+06 -1.3072e+08 -8.32021e-10 8.87941e+07 -6.13623e-10 -2.16572e+07)
(1.17054e+07 -1.3182e+08 -9.02651e-10 8.50448e+07 4.67875e-09 -2.16572e+07)
(1.54846e+07 -1.32814e+08 0 8.12656e+07 0 -2.16572e+07)
(1.92907e+07 -1.33699e+08 3.49667e-09 7.74595e+07 -2.66804e-09 -2.16572e+07)
(2.31205e+07 -1.34475e+08 5.45491e-09 7.36297e+07 -6.57471e-09 -2.16572e+07)
(2.69708e+07 -1.35141e+08 3.59769e-10 6.97794e+07 -5.31012e-09 -2.16572e+07)
(3.08387e+07 -1.35697e+08 -2.39571e-09 6.59115e+07 -2.10603e-09 -2.16572e+07)
(3.47208e+07 -1.36143e+08 -6.64763e-09 6.20294e+07 2.62608e-09 -2.16572e+07)
(3.86141e+07 -1.36477e+08 -2.15403e-09 5.81361e+07 3.83075e-09 -2.16572e+07)
(4.25153e+07 -1.367e+08 -1.52492e-09 5.42349e+07 -1.46095e-09 -2.16572e+07)
(4.64213e+07 -1.36812e+08 -3.75596e-09 5.03289e+07 2.29544e-09 -2.16572e+07)
(5.03289e+07 -1.36812e+08 4.49127e-09 4.64213e+07 1.51366e-09 -2.16572e+07)
(5.42349e+07 -1.367e+08 2.03683e-11 4.25153e+07 2.12601e-11 -2.16572e+07)
(5.81361e+07 -1.36477e+08 3.09619e-09 3.86141e+07 -2.943e-09 -2.16572e+07)
(6.20294e+07 -1.36143e+08 -2.10052e-09 3.47208e+07 -2.32173e-09 -2.16572e+07)
(6.59115e+07 -1.35697e+08 -1.83327e-09 3.08387e+07 4.38419e-09 -2.16572e+07)
(6.97794e+07 -1.35141e+08 -2.29067e-09 2.69708e+07 6.0653e-10 -2.16572e+07)
(7.36297e+07 -1.34475e+08 3.92868e-09 2.31205e+07 -1.95448e-09 -2.16572e+07)
(7.74595e+07 -1.33699e+08 -2.9695e-10 1.92907e+07 -3.77225e-09 -2.16572e+07)
(8.12656e+07 -1.32814e+08 -3.75798e-09 1.54846e+07 5.59441e-09 -2.16572e+07)
(8.50448e+07 -1.3182e+08 6.52159e-10 1.17054e+07 8.58339e-10 -2.16572e+07)
(8.87941e+07 -1.3072e+08 -8.73775e-12 7.9561e+06 -1.18476e-11 -2.16572e+07)
(9.25105e+07 -1.29512e+08 2.35988e-09 4.23975e+06 -3.72367e-10 -2.16572e+07)
(9.61908e+07 -1.28199e+08 1.14375e-09 559394 -2.0975e-09 -2.16572e+07)
(9.98322e+07 -1.26781e+08 5.31058e-09 -3.08196e+06 -3.58478e-09 -2.16572e+07)
(1.03432e+08 -1.2526e+08 -5.87756e-09 -6.68135e+06 -1.18947e-09 -2.16572e+07)
(1.06986e+08 -1.23637e+08 -3.06498e-09 -1.02358e+07 3.14487e-09 -2.16572e+07)
(1.10493e+08 -1.21913e+08 3.64974e-09 -1.37425e+07 -2.2193e-09 -2.16572e+07)
(1.13949e+08 -1.20089e+08 -2.58093e-09 -1.71985e+07 4.02113e-09 -2.16572e+07)
(1.17351e+08 -1.18168e+08 -1.86315e-09 -2.0601e+07 1.04432e-09 -2.16572e+07)
(1.20698e+08 -1.1615e+08 3.73429e-09 -2.39473e+07 -2.07383e-09 -2.16572e+07)
(1.23985e+08 -1.14037e+08 1.38235e-09 -2.72346e+07 -1.94048e-09 -2.16572e+07)
(1.2721e+08 -1.11832e+08 -4.89465e-10 -3.04602e+07 -9.43907e-10 -2.16572e+07)
(1.30372e+08 -1.09535e+08 -1.90655e-09 -3.36215e+07 9.6258e-10 -2.16572e+07)
(1.33466e+08 -1.07149e+08 1.38053e-09 -3.6716e+07 2.85924e-09 -2.16572e+07)
(1.36491e+08 -1.04675e+08 6.21088e-12 -3.9741e+07 1.33469e-11 -2.16572e+07)
(1.39444e+08 -1.02116e+08 4.3208e-09 -4.26942e+07 -8.03216e-10 -2.16572e+07)
(1.42323e+08 -9.94738e+07 -4.74106e-09 -4.55731e+07 -2.07947e-10 -2.16572e+07)
(1.45126e+08 -9.67504e+07 1.19252e-09 -4.83753e+07 2.87899e-09 -2.16572e+07)
(1.47849e+08 -9.39482e+07 4.79449e-09 -5.10987e+07 -5.28341e-09 -2.16572e+07)
(1.50491e+08 -9.10693e+07 -3.99666e-09 -5.37409e+07 1.50752e-09 -2.16572e+07)
(1.5305e+08 -8.81161e+07 -2.00385e-09 -5.62998e+07 7.38976e-10 -2.16572e+07)
(1.55524e+08 -8.50911e+07 -3.68308e-09 -5.87734e+07 2.41063e-09 -2.16572e+07)
(1.5791e+08 -8.19966e+07 6.40352e-09 -6.11596e+07 -1.04947e-09 -2.16572e+07)
(1.60207e+08 -7.88353e+07 1.77962e-11 -6.34564e+07 5.61314e-11 -2.16572e+07)
(1.62412e+08 -7.56097e+07 -3.79569e-09 -6.5662e+07 2.2084e-09 -2.16572e+07)
(1.64525e+08 -7.23224e+07 -2.84172e-10 -6.77746e+07 -9.94001e-10 -2.16572e+07)
(1.66543e+08 -6.89761e+07 5.47586e-10 -6.97925e+07 2.02434e-09 -2.16572e+07)
(1.68464e+08 -6.55736e+07 8.27763e-09 -7.1714e+07 -2.11274e-09 -2.16572e+07)
(1.70288e+08 -6.21176e+07 -4.6396e-09 -7.35376e+07 -1.02767e-09 -2.16572e+07)
(1.72012e+08 -5.86109e+07 -8.34105e-09 -7.52617e+07 1.84678e-09 -2.16572e+07)
(1.73635e+08 -5.50564e+07 5.05159e-09 -7.6885e+07 3.26966e-09 -2.16572e+07)
(1.75156e+08 -5.14571e+07 1.89671e-09 -7.84061e+07 -1.43108e-09 -2.16572e+07)
(1.76574e+08 -4.78157e+07 -4.20363e-09 -7.98238e+07 7.58418e-10 -2.16572e+07)
(1.77887e+08 -4.41354e+07 2.27723e-09 -8.11369e+07 6.78019e-10 -2.16572e+07)
(1.79095e+08 -4.0419e+07 8.28832e-09 -8.23444e+07 -2.32748e-09 -2.16572e+07)
(1.80196e+08 -3.66697e+07 -2.11115e-09 -8.34453e+07 3.25312e-10 -2.16572e+07)
(1.81189e+08 -3.28905e+07 -6.49152e-09 -8.44387e+07 -3.01561e-10 -2.16572e+07)
(1.82074e+08 -2.90844e+07 0 -8.53238e+07 0 -2.16572e+07)
(1.8285e+08 -2.52546e+07 2.12587e-09 -8.60998e+07 -2.05284e-10 -2.16572e+07)
(1.83516e+08 -2.14043e+07 6.38692e-09 -8.67661e+07 -5.10045e-10 -2.16572e+07)
(1.84072e+08 -1.75364e+07 -2.26553e-09 -8.73222e+07 -1.94827e-09 -2.16572e+07)
(1.84518e+08 -1.36543e+07 -4.21452e-09 -8.77677e+07 1.24593e-09 -2.16572e+07)
(1.84852e+08 -9.76104e+06 6.4029e-09 -8.81021e+07 -2.36046e-10 -2.16572e+07)
(1.85075e+08 -5.85981e+06 -4.49161e-11 -8.83251e+07 -2.09661e-09 -2.16572e+07)
(1.85187e+08 -1.9538e+06 -4.2715e-09 -8.84367e+07 1.57773e-11 -2.16572e+07)
(-8.71068e+07 -1.92362e+06 -1.06369e-09 1.8229e+08 -7.59488e-12 -2.11039e+07)
(-8.6997e+07 -5.76928e+06 -2.03253e-09 1.8218e+08 -4.20551e-09 -2.11039e+07)
(-8.67773e+07 -9.61024e+06 -7.84565e-13 1.8196e+08 -2.8007e-14 -2.11039e+07)
(-8.64481e+07 -1.34434e+07 -3.18972e-10 1.81631e+08 6.23336e-09 -2.11039e+07)
(-8.60096e+07 -1.72655e+07 -1.87464e-09 1.81192e+08 -4.29025e-09 -2.11039e+07)
(-8.5462e+07 -2.10736e+07 1.07394e-09 1.80645e+08 8.45206e-11 -2.11039e+07)
(-8.4806e+07 -2.48645e+07 -3.30134e-11 1.79989e+08 -3.0731e-12 -2.11039e+07)
(-8.4042e+07 -2.86351e+07 2.32127e-11 1.79225e+08 2.49565e-12 -2.11039e+07)
(-8.31706e+07 -3.23823e+07 -1.58815e-09 1.78353e+08 3.99813e-09 -2.11039e+07)
(-8.21926e+07 -3.61032e+07 1.32298e-09 1.77375e+08 -1.91921e-09 -2.11039e+07)
(-8.11087e+07 -3.97946e+07 -1.93992e-11 1.76291e+08 -2.93071e-12 -2.11039e+07)
(-7.99198e+07 -4.34535e+07 2.47243e-09 1.75102e+08 4.62747e-09 -2.11039e+07)
(-7.86269e+07 -4.7077e+07 -2.80792e-09 1.7381e+08 3.72159e-09 -2.11039e+07)
(-7.72311e+07 -5.06621e+07 -2.51246e-10 1.72414e+08 -4.28859e-09 -2.11039e+07)
(-7.57335e+07 -5.42059e+07 -3.07576e-09 1.70916e+08 -6.46127e-10 -2.11039e+07)
(-7.41353e+07 -5.77054e+07 -4.58565e-10 1.69318e+08 2.02934e-09 -2.11039e+07)
(-7.24378e+07 -6.11579e+07 9.71369e-10 1.67621e+08 -4.04604e-09 -2.11039e+07)
(-7.06425e+07 -6.45605e+07 1.54263e-09 1.65825e+08 -1.75347e-09 -2.11039e+07)
(-6.87507e+07 -6.79105e+07 -1.03629e-09 1.63933e+08 -2.80317e-10 -2.11039e+07)
(-6.6764e+07 -7.12051e+07 -2.04549e-09 1.61947e+08 -5.8478e-10 -2.11039e+07)
(-6.4684e+07 -7.44416e+07 -5.93528e-10 1.59867e+08 1.99406e-09 -2.11039e+07)
(-6.25124e+07 -7.76174e+07 -2.6542e-09 1.57695e+08 1.34107e-09 -2.11039e+07)
(-6.02511e+07 -8.07298e+07 1.00929e-09 1.55434e+08 3.35922e-10 -2.11039e+07)
(-5.79018e+07 -8.37765e+07 9.95123e-10 1.53084e+08 3.4707e-10 -2.11039e+07)
(-5.54664e+07 -8.67548e+07 1.12913e-09 1.50649e+08 -6.23202e-09 -2.11039e+07)
(-5.2947e+07 -8.96623e+07 -2.37887e-10 1.4813e+08 -2.31716e-09 -2.11039e+07)
(-5.03456e+07 -9.24967e+07 -5.80371e-10 1.45528e+08 4.24707e-09 -2.11039e+07)
(-4.76644e+07 -9.52557e+07 -4.70243e-09 1.42847e+08 3.04112e-10 -2.11039e+07)
(-4.49054e+07 -9.7937e+07 -1.79795e-09 1.40088e+08 1.49056e-09 -2.11039e+07)
(-4.2071e+07 -1.00538e+08 8.7106e-10 1.37254e+08 -1.88951e-09 -2.11039e+07)
(-3.91634e+07 -1.03058e+08 1.05275e-09 1.34346e+08 2.78463e-09 -2.11039e+07)
(-3.61851e+07 -1.05493e+08 9.9186e-10 1.31368e+08 2.78922e-09 -2.11039e+07)
(-3.31385e+07 -1.07842e+08 2.15791e-11 1.28321e+08 1.08017e-11 -2.11039e+07)
(-3.0026e+07 -1.10104e+08 9.47378e-10 1.25209e+08 -1.85233e-09 -2.11039e+07)
(-2.68502e+07 -1.12275e+08 9.94302e-10 1.22033e+08 -1.82757e-09 -2.11039e+07)
(-2.36137e+07 -1.14355e+08 -3.9448e-12 1.18796e+08 -2.19073e-12 -2.11039e+07)
(-2.03192e+07 -1.16342e+08 1.04217e-09 1.15502e+08 -1.80068e-09 -2.11039e+07)
(-1.69692e+07 -1.18234e+08 -3.92368e-09 1.12152e+08 2.51028e-09 -2.11039e+07)
(-1.35666e+07 -1.20029e+08 -3.96682e-09 1.08749e+08 2.44928e-09 -2.11039e+07)
(-1.01141e+07 -1.21727e+08 2.22904e-09 1.05297e+08 -3.51361e-09 -2.11039e+07)
(-6.61452e+06 -1.23325e+08 5.83303e-09 1.01797e+08 -1.16135e-09 -2.11039e+07)
(-3.07074e+06 -1.24822e+08 0 9.82534e+07 0 -2.11039e+07)
(514357 -1.26218e+08 -6.29946e-10 9.46683e+07 4.62825e-09 -2.11039e+07)
(4.13785e+06 -1.27511e+08 -1.22831e-09 9.10448e+07 1.67935e-09 -2.11039e+07)
(7.79679e+06 -1.287e+08 2.47765e-09 8.73859e+07 -3.34296e-09 -2.11039e+07)
(1.14882e+07 -1.29784e+08 -2.10416e-09 8.36945e+07 1.01419e-09 -2.11039e+07)
(1.5209e+07 -1.30762e+08 3.76301e-10 7.99737e+07 2.93632e-09 -2.11039e+07)
(1.89563e+07 -1.31633e+08 2.60327e-09 7.62264e+07 -3.24609e-09 -2.11039e+07)
(2.27269e+07 -1.32397e+08 -1.62626e-09 7.24558e+07 -1.34928e-09 -2.11039e+07)
(2.65178e+07 -1.33053e+08 -1.33425e-09 6.86649e+07 1.59649e-09 -2.11039e+07)
(3.03258e+07 -1.33601e+08 -2.37463e-09 6.48569e+07 -2.0875e-09 -2.11039e+07)
(3.4148e+07 -1.34039e+08 -9.54088e-10 6.10347e+07 -3.6688e-09 -2.11039e+07)
(3.79811e+07 -1.34369e+08 -2.18768e-09 5.72016e+07 8.05827e-10 -2.11039e+07)
(4.18221e+07 -1.34588e+08 -4.41096e-09 5.33606e+07 1.53652e-09 -2.11039e+07)
(4.56677e+07 -1.34698e+08 5.82898e-09 4.9515e+07 -5.93965e-09 -2.11039e+07)
(4.9515e+07 -1.34698e+08 4.45938e-09 4.56677e+07 -1.40351e-09 -2.11039e+07)
(5.33606e+07 -1.34588e+08 -8.95277e-09 4.18221e+07 2.68477e-09 -2.11039e+07)
(5.72016e+07 -1.34369e+08 -8.12511e-10 3.79811e+07 2.1805e-09 -2.11039e+07)
(6.10347e+07 -1.34039e+08 2.50753e-10 3.4148e+07 -5.925e-09 -2.11039e+07)
(6.48569e+07 -1.33601e+08 1.40112e-09 3.03258e+07 1.59385e-09 -2.11039e+07)
(6.86649e+07 -1.33053e+08 -4.53935e-09 2.65178e+07 1.0921e-09 -2.11039e+07)
(7.24558e+07 -1.32397e+08 2.02222e-09 2.27269e+07 2.43735e-09 -2.11039e+07)
(7.62264e+07 -1.31633e+08 1.25605e-09 1.89563e+07 -5.07276e-09 -2.11039e+07)
(7.99737e+07 -1.30762e+08 2.28632e-09 1.5209e+07 -4.54295e-10 -2.11039e+07)
(8.36945e+07 -1.29784e+08 -2.66691e-09 1.14882e+07 3.36789e-09 -2.11039e+07)
(8.73859e+07 -1.287e+08 2.50847e-09 7.79679e+06 3.40127e-09 -2.11039e+07)
(9.10448e+07 -1.27511e+08 -6.08117e-10 4.13785e+06 -8.49694e-10 -2.11039e+07)
(9.46683e+07 -1.26218e+08 -1.07416e-11 514358 -1.54708e-11 -2.11039e+07)
(9.82534e+07 -1.24822e+08 -1.17225e-09 -3.07074e+06 -1.74091e-09 -2.11039e+07)
(1.01797e+08 -1.23325e+08 -3.47685e-09 -6.61452e+06 -1.52005e-09 -2.11039e+07)
(1.05297e+08 -1.21727e+08 3.51119e-09 -1.01141e+07 -2.23285e-09 -2.11039e+07)
(1.08749e+08 -1.20029e+08 4.76223e-09 -1.35666e+07 -4.17426e-09 -2.11039e+07)
(1.12152e+08 -1.18234e+08 -4.65218e-09 -1.69692e+07 3.13688e-10 -2.11039e+07)
(1.15502e+08 -1.16342e+08 -4.37122e-09 -2.03192e+07 4.92178e-09 -2.11039e+07)
(1.18796e+08 -1.14355e+08 2.33877e-09 -2.36137e+07 -7.38906e-11 -2.11039e+07)
(1.22033e+08 -1.12275e+08 4.63967e-12 -2.68502e+07 8.64308e-12 -2.11039e+07)
(1.25209e+08 -1.10104e+08 1.84817e-09 -3.0026e+07 -9.5539e-10 -2.11039e+07)
(1.28321e+08 -1.07842e+08 5.57812e-09 -3.31385e+07 -2.80021e-09 -2.11039e+07)
(1.31368e+08 -1.05493e+08 4.62167e-10 -3.61851e+07 9.57201e-10 -2.11039e+07)
(1.34346e+08 -1.03058e+08 -2.88103e-09 -3.91634e+07 3.67137e-09 -2.11039e+07)
(1.37254e+08 -1.00538e+08 4.30954e-10 -4.2071e+07 9.61772e-10 -2.11039e+07)
(1.40088e+08 -9.7937e+07 -1.25541e-09 -4.49054e+07 -2.91249e-09 -2.11039e+07)
(1.42847e+08 -9.52557e+07 -1.52359e-09 -4.76644e+07 1.75835e-09 -2.11039e+07)
(1.45528e+08 -9.24967e+07 5.58132e-12 -5.03456e+07 1.40382e-11 -2.11039e+07)
(1.4813e+08 -8.96623e+07 1.94664e-09 -5.2947e+07 -7.3427e-10 -2.11039e+07)
(1.50649e+08 -8.67548e+07 -3.64607e-10 -5.54664e+07 -9.99281e-10 -2.11039e+07)
(1.53084e+08 -8.37765e+07 -1.96533e-09 -5.79018e+07 6.82643e-10 -2.11039e+07)
(1.55434e+08 -8.07298e+07 4.27185e-09 -6.02511e+07 -3.41246e-10 -2.11039e+07)
(1.57695e+08 -7.76174e+07 1.29851e-11 -6.25124e+07 4.09567e-11 -2.11039e+07)
(1.59867e+08 -7.44416e+07 -5.67805e-09 -6.4684e+07 2.78966e-09 -2.11039e+07)
(1.61947e+08 -7.12051e+07 1.7087e-09 -6.6764e+07 -1.59208e-09 -2.11039e+07)
(1.63933e+08 -6.79105e+07 3.1161e-09 -6.87507e+07 3.55199e-09 -2.11039e+07)
(1.65825e+08 -6.45605e+07 -2.63065e-10 -7.06425e+07 -1.03068e-09 -2.11039e+07)
(1.67621e+08 -6.11579e+07 -4.53476e-09 -7.24378e+07 -1.06429e-09 -2.11039e+07)
(1.69318e+08 -5.77054e+07 4.28359e-09 -7.41353e+07 8.23582e-11 -2.11039e+07)
(1.70916e+08 -5.42059e+07 2.47567e-09 -7.57335e+07 1.66494e-09 -2.11039e+07)
(1.72414e+08 -5.06621e+07 -6.12813e-09 -7.72311e+07 1.18434e-09 -2.11039e+07)
(1.7381e+08 -4.7077e+07 0 -7.86269e+07 0 -2.11039e+07)
(1.75102e+08 -4.34535e+07 6.93995e-10 -7.99198e+07 4.18796e-09 -2.11039e+07)
(1.76291e+08 -3.97946e+07 6.16974e-09 -8.11087e+07 -9.4389e-10 -2.11039e+07)
(1.77375e+08 -3.61032e+07 -2.34233e-09 -8.21926e+07 -1.77685e-09 -2.11039e+07)
(1.78353e+08 -3.23823e+07 -6.06994e-09 -8.31706e+07 1.78582e-09 -2.11039e+07)
(1.79225e+08 -2.86351e+07 1.95564e-09 -8.4042e+07 -1.2729e-09 -2.11039e+07)
(1.79989e+08 -2.48645e+07 1.97229e-09 -8.4806e+07 -1.25911e-09 -2.11039e+07)
(1.80645e+08 -2.10736e+07 1.9912e-09 -8.5462e+07 -1.21654e-09 -2.11039e+07)
(1.81192e+08 -1.72655e+07 -1.35355e-10 -8.60096e+07 -2.10347e-09 -2.11039e+07)
(1.81631e+08 -1.34434e+07 5.26524e-11 -8.64481e+07 1.05259e-09 -2.11039e+07)
(1.8196e+08 -9.61024e+06 0 -8.67773e+07 0 -2.11039e+07)
(1.8218e+08 -5.76928e+06 -4.5146e-11 -8.6997e+07 -2.10734e-09 -2.11039e+07)
(1.8229e+08 -1.92362e+06 0 -8.71068e+07 0 -2.11039e+07)
(-8.50797e+07 -1.88651e+06 1.71217e-11 1.7912e+08 -2.02195e-09 -2.04092e+07)
(-8.4972e+07 -5.65799e+06 1.38024e-11 1.79012e+08 2.95682e-13 -2.04092e+07)
(-8.47566e+07 -9.42486e+06 -4.19837e-09 1.78797e+08 -1.49945e-10 -2.04092e+07)
(-8.44337e+07 -1.3184e+07 -2.1857e-09 1.78474e+08 1.91522e-09 -2.04092e+07)
(-8.40036e+07 -1.69325e+07 3.13749e-09 1.78044e+08 2.01893e-10 -2.04092e+07)
(-8.34667e+07 -2.06671e+07 -1.75133e-09 1.77507e+08 -4.19439e-09 -2.04092e+07)
(-8.28233e+07 -2.43848e+07 -1.05901e-09 1.76864e+08 -9.85803e-11 -2.04092e+07)
(-8.2074e+07 -2.80827e+07 -2.49542e-09 1.76114e+08 3.79907e-09 -2.04092e+07)
(-8.12194e+07 -3.17577e+07 7.90376e-10 1.7526e+08 2.13342e-09 -2.04092e+07)
(-8.02602e+07 -3.54067e+07 2.11181e-09 1.74301e+08 2.88258e-10 -2.04092e+07)
(-7.91973e+07 -3.90269e+07 8.90974e-10 1.73238e+08 -6.00031e-09 -2.04092e+07)
(-7.80313e+07 -4.26153e+07 6.83074e-10 1.72072e+08 -3.98601e-09 -2.04092e+07)
(-7.67634e+07 -4.61689e+07 6.19569e-10 1.70804e+08 8.33047e-09 -2.04092e+07)
(-7.53945e+07 -4.96848e+07 -4.0772e-10 1.69435e+08 1.9806e-09 -2.04092e+07)
(-7.39258e+07 -5.31602e+07 8.40771e-10 1.67966e+08 -3.9557e-09 -2.04092e+07)
(-7.23584e+07 -5.65923e+07 2.05134e-09 1.66399e+08 4.61605e-10 -2.04092e+07)
(-7.06937e+07 -5.99782e+07 1.01145e-09 1.64734e+08 2.42829e-10 -2.04092e+07)
(-6.89329e+07 -6.33152e+07 -4.79995e-10 1.62973e+08 1.96434e-09 -2.04092e+07)
(-6.70776e+07 -6.66005e+07 -1.05079e-09 1.61118e+08 3.90515e-09 -2.04092e+07)
(-6.51293e+07 -6.98316e+07 5.17037e-09 1.5917e+08 -2.72793e-09 -2.04092e+07)
(-6.30894e+07 -7.30056e+07 2.64365e-11 1.5713e+08 7.96793e-12 -2.04092e+07)
(-6.09597e+07 -7.61201e+07 9.87533e-10 1.55e+08 3.13092e-10 -2.04092e+07)
(-5.8742e+07 -7.91726e+07 3.6493e-09 1.52782e+08 -9.1648e-10 -2.04092e+07)
(-5.6438e+07 -8.21604e+07 3.22805e-10 1.50478e+08 2.25406e-09 -2.04092e+07)
(-5.40497e+07 -8.50813e+07 -9.9015e-10 1.4809e+08 -3.61275e-10 -2.04092e+07)
(-5.15789e+07 -8.79328e+07 -1.9429e-09 1.45619e+08 -7.40511e-10 -2.04092e+07)
(-4.90276e+07 -9.07125e+07 -7.31718e-10 1.43068e+08 1.88506e-09 -2.04092e+07)
(-4.63981e+07 -9.34183e+07 4.9605e-12 1.40438e+08 2.05472e-12 -2.04092e+07)
(-4.36923e+07 -9.60478e+07 4.1568e-09 1.37733e+08 -7.01573e-09 -2.04092e+07)
(-4.09126e+07 -9.8599e+07 1.79393e-09 1.34953e+08 -1.41191e-09 -2.04092e+07)
(-3.80611e+07 -1.0107e+08 -1.7187e-09 1.32101e+08 3.66069e-09 -2.04092e+07)
(-3.51403e+07 -1.03458e+08 -1.72674e-11 1.29181e+08 -8.33727e-12 -2.04092e+07)
(-3.21524e+07 -1.05762e+08 3.50199e-11 1.26193e+08 2.27873e-09 -2.04092e+07)
(-2.91e+07 -1.0798e+08 -9.4546e-10 1.2314e+08 1.78745e-09 -2.04092e+07)
(-2.59855e+07 -1.1011e+08 -8.98591e-10 1.20026e+08 -2.77732e-09 -2.04092e+07)
(-2.28114e+07 -1.12149e+08 1.9008e-09 1.16852e+08 -1.25731e-09 -2.04092e+07)
(-1.95804e+07 -1.14098e+08 0 1.13621e+08 0 -2.04092e+07)
(-1.6295e+07 -1.15953e+08 1.81291e-09 1.10335e+08 1.07565e-09 -2.04092e+07)
(-1.2958e+07 -1.17714e+08 1.78102e-09 1.06998e+08 1.09141e-09 -2.04092e+07)
(-9.57214e+06 -1.19379e+08 2.13416e-09 1.03612e+08 -3.43523e-09 -2.04092e+07)
(-6.14008e+06 -1.20946e+08 1.77225e-09 1.0018e+08 1.15692e-09 -2.04092e+07)
(-2.66466e+06 -1.22415e+08 -2.2702e-09 9.6705e+07 3.34675e-09 -2.04092e+07)
(851285 -1.23784e+08 -2.29507e-09 9.31891e+07 3.32974e-09 -2.04092e+07)
(4.40488e+06 -1.25051e+08 1.69176e-09 8.96355e+07 1.21077e-09 -2.04092e+07)
(7.99324e+06 -1.26217e+08 -2.02836e-09 8.60471e+07 1.01652e-09 -2.04092e+07)
(1.16134e+07 -1.2728e+08 -1.00761e-11 8.24269e+07 -7.65567e-12 -2.04092e+07)
(1.52625e+07 -1.2824e+08 2.91832e-09 7.87779e+07 -2.83804e-10 -2.04092e+07)
(1.89375e+07 -1.29094e+08 -3.36149e-09 7.51029e+07 2.48487e-09 -2.04092e+07)
(2.26353e+07 -1.29843e+08 5.15795e-09 7.1405e+07 -6.23001e-09 -2.04092e+07)
(2.63531e+07 -1.30487e+08 5.26604e-10 6.76873e+07 -2.20938e-09 -2.04092e+07)
(3.00877e+07 -1.31024e+08 -3.22901e-09 6.39526e+07 5.23818e-09 -2.04092e+07)
(3.38361e+07 -1.31454e+08 -5.69859e-10 6.02042e+07 2.21119e-09 -2.04092e+07)
(3.75953e+07 -1.31777e+08 -1.36886e-09 5.6445e+07 1.48827e-09 -2.04092e+07)
(4.13622e+07 -1.31992e+08 1.39385e-09 5.26782e+07 -1.46486e-09 -2.04092e+07)
(4.51337e+07 -1.321e+08 4.33345e-09 4.89067e+07 -1.40675e-09 -2.04092e+07)
(4.89067e+07 -1.321e+08 -5.76209e-09 4.51337e+07 2.79568e-09 -2.04092e+07)
(5.26782e+07 -1.31992e+08 -1.46698e-09 4.13622e+07 1.39164e-09 -2.04092e+07)
(5.6445e+07 -1.31777e+08 4.40853e-09 3.75953e+07 -1.19966e-09 -2.04092e+07)
(6.02042e+07 -1.31454e+08 7.84846e-10 3.38361e+07 -2.14641e-09 -2.04092e+07)
(6.39526e+07 -1.31024e+08 1.823e-11 3.00877e+07 2.07374e-11 -2.04092e+07)
(6.76873e+07 -1.30487e+08 6.72813e-10 2.63531e+07 7.87763e-10 -2.04092e+07)
(7.1405e+07 -1.29843e+08 1.55713e-09 2.26353e+07 -1.28993e-09 -2.04092e+07)
(7.51029e+07 -1.29094e+08 -9.17412e-10 1.89375e+07 2.08407e-09 -2.04092e+07)
(7.87779e+07 -1.2824e+08 1.59404e-09 1.52625e+07 -1.24403e-09 -2.04092e+07)
(8.24269e+07 -1.2728e+08 4.82589e-09 1.16134e+07 -3.67534e-09 -2.04092e+07)
(8.60471e+07 -1.26217e+08 -2.00163e-09 7.99324e+06 4.09932e-09 -2.04092e+07)
(8.96355e+07 -1.25051e+08 -4.94182e-09 4.40488e+06 3.51795e-09 -2.04092e+07)
(9.31891e+07 -1.23784e+08 1.20465e-09 851286 1.73502e-09 -2.04092e+07)
(9.6705e+07 -1.22415e+08 -1.17439e-09 -2.66466e+06 -1.74409e-09 -2.04092e+07)
(1.0018e+08 -1.20946e+08 1.15461e-09 -6.14007e+06 1.76871e-09 -2.04092e+07)
(1.03612e+08 -1.19379e+08 5.61235e-10 -9.57213e+06 8.87163e-10 -2.04092e+07)
(1.06998e+08 -1.17714e+08 -1.0892e-09 -1.2958e+07 -1.77742e-09 -2.04092e+07)
(1.10335e+08 -1.15953e+08 6.72323e-10 -1.6295e+07 -2.82952e-09 -2.04092e+07)
(1.13621e+08 -1.14098e+08 4.55403e-09 -1.95804e+07 -1.90255e-10 -2.04092e+07)
(1.16852e+08 -1.12149e+08 5.07066e-10 -2.28114e+07 9.13062e-10 -2.04092e+07)
(1.20026e+08 -1.1011e+08 -5.03045e-10 -2.59855e+07 -9.37104e-10 -2.04092e+07)
(1.2314e+08 -1.0798e+08 4.80786e-10 -2.91e+07 9.2717e-10 -2.04092e+07)
(1.26193e+08 -1.05762e+08 -9.43578e-10 -3.21524e+07 -1.88503e-09 -2.04092e+07)
(1.29181e+08 -1.03458e+08 2.72754e-09 -3.51403e+07 -3.65184e-09 -2.04092e+07)
(1.32101e+08 -1.0107e+08 3.55923e-12 -3.80611e+07 7.64876e-12 -2.04092e+07)
(1.34953e+08 -9.8599e+07 -5.53857e-09 -4.09126e+07 2.47418e-09 -2.04092e+07)
(1.37733e+08 -9.60478e+07 -3.70994e-09 -4.36923e+07 1.60959e-09 -2.04092e+07)
(1.40438e+08 -9.34183e+07 5.59845e-09 -4.63981e+07 -2.33556e-09 -2.04092e+07)
(1.43068e+08 -9.07125e+07 4.15201e-09 -4.90276e+07 -5.02893e-10 -2.04092e+07)
(1.45619e+08 -8.79328e+07 -5.67079e-09 -5.15789e+07 2.15395e-09 -2.04092e+07)
(1.4809e+08 -8.50813e+07 -2.62116e-09 -5.40497e+07 -1.2847e-09 -2.04092e+07)
(1.50478e+08 -8.21604e+07 -6.91042e-10 -5.6438e+07 -1.98136e-09 -2.04092e+07)
(1.52782e+08 -7.91726e+07 6.08196e-09 -5.8742e+07 -9.3525e-10 -2.04092e+07)
(1.55e+08 -7.61201e+07 -6.2456e-10 -6.09597e+07 -1.96995e-09 -2.04092e+07)
(1.5713e+08 -7.30056e+07 -5.50982e-09 -6.30894e+07 2.73986e-09 -2.04092e+07)
(1.5917e+08 -6.98316e+07 6.11644e-09 -6.51293e+07 -6.73921e-10 -2.04092e+07)
(1.61118e+08 -6.66005e+07 5.80778e-12 -6.70776e+07 2.14703e-11 -2.04092e+07)
(1.62973e+08 -6.33152e+07 -4.44421e-09 -6.89329e+07 -1.05986e-09 -2.04092e+07)
(1.64734e+08 -5.99782e+07 3.22287e-12 -7.06937e+07 1.34241e-11 -2.04092e+07)
(1.66399e+08 -5.65923e+07 4.57648e-10 -7.23584e+07 2.03375e-09 -2.04092e+07)
(1.67966e+08 -5.31602e+07 1.55083e-09 -7.39258e+07 -2.45315e-09 -2.04092e+07)
(1.69435e+08 -4.96848e+07 -2.18702e-09 -7.53945e+07 -6.49715e-10 -2.04092e+07)
(1.70804e+08 -4.61689e+07 4.16204e-09 -7.67634e+07 2.92047e-10 -2.04092e+07)
(1.72072e+08 -4.26153e+07 2.16807e-09 -7.80313e+07 7.14929e-10 -2.04092e+07)
(1.73238e+08 -3.90269e+07 -3.84473e-09 -7.91973e+07 1.62314e-09 -2.04092e+07)
(1.74301e+08 -3.54067e+07 -2.82501e-10 -8.02602e+07 -2.06964e-09 -2.04092e+07)
(1.7526e+08 -3.17577e+07 -3.75971e-09 -8.12194e+07 2.57682e-09 -2.04092e+07)
(1.76114e+08 -2.80827e+07 -3.90866e-09 -8.2074e+07 1.47606e-09 -2.04092e+07)
(1.76864e+08 -2.43848e+07 2.11126e-09 -8.28233e+07 8.64722e-10 -2.04092e+07)
(1.77507e+08 -2.06671e+07 3.86695e-09 -8.34667e+07 -2.40924e-09 -2.04092e+07)
(1.78044e+08 -1.69325e+07 2.0183e-09 -8.40036e+07 -1.22957e-10 -2.04092e+07)
(1.78474e+08 -1.3184e+07 -1.05314e-10 -8.44337e+07 -2.10537e-09 -2.04092e+07)
(1.78797e+08 -9.42486e+06 0 -8.47566e+07 0 -2.04092e+07)
(1.79012e+08 -5.65799e+06 0 -8.4972e+07 0 -2.04092e+07)
(1.7912e+08 -1.88651e+06 0 -8.50797e+07 0 -2.04092e+07)
(-8.35146e+07 -1.85479e+06 -1.05928e-09 1.76243e+08 -7.56336e-12 -1.98336e+07)
(-8.34086e+07 -5.56286e+06 -7.09536e-11 1.76137e+08 3.93684e-09 -1.98336e+07)
(-8.31968e+07 -9.26639e+06 9.04718e-10 1.75925e+08 3.97228e-09 -1.98336e+07)
(-8.28794e+07 -1.29624e+07 3.8551e-10 1.75608e+08 -7.86547e-09 -1.98336e+07)
(-8.24565e+07 -1.66478e+07 2.35074e-09 1.75185e+08 -3.79433e-09 -1.98336e+07)
(-8.19286e+07 -2.03196e+07 -2.71115e-09 1.74657e+08 7.68589e-09 -1.98336e+07)
(-8.1296e+07 -2.39748e+07 -7.88922e-12 1.74025e+08 -7.3439e-13 -1.98336e+07)
(-8.05594e+07 -2.76105e+07 2.52194e-09 1.73288e+08 -3.68901e-09 -1.98336e+07)
(-7.97191e+07 -3.12237e+07 4.44766e-10 1.72448e+08 -3.91239e-09 -1.98336e+07)
(-7.87761e+07 -3.48114e+07 1.03875e-09 1.71505e+08 1.41788e-10 -1.98336e+07)
(-7.7731e+07 -3.83707e+07 3.53238e-09 1.70459e+08 4.51578e-09 -1.98336e+07)
(-7.65847e+07 -4.18988e+07 -2.05293e-09 1.69313e+08 -3.40195e-10 -1.98336e+07)
(-7.53381e+07 -4.53926e+07 -6.85937e-10 1.68067e+08 3.87727e-09 -1.98336e+07)
(-7.39922e+07 -4.88494e+07 -2.62703e-11 1.66721e+08 -5.12803e-12 -1.98336e+07)
(-7.25482e+07 -5.22664e+07 -2.14106e-10 1.65277e+08 -4.06837e-09 -1.98336e+07)
(-7.10072e+07 -5.56408e+07 0 1.63736e+08 0 -1.98336e+07)
(-6.93704e+07 -5.89698e+07 -1.03004e-09 1.62099e+08 -2.4729e-10 -1.98336e+07)
(-6.76393e+07 -6.22506e+07 0 1.60368e+08 0 -1.98336e+07)
(-6.58151e+07 -6.54807e+07 4.03917e-09 1.58544e+08 -7.06533e-09 -1.98336e+07)
(-6.38995e+07 -6.86574e+07 2.016e-09 1.56628e+08 5.76349e-10 -1.98336e+07)
(-6.1894e+07 -7.17781e+07 -4.30857e-09 1.54622e+08 6.92622e-09 -1.98336e+07)
(-5.98001e+07 -7.48403e+07 1.15925e-09 1.52529e+08 -3.76307e-09 -1.98336e+07)
(-5.76197e+07 -7.78414e+07 -1.9848e-09 1.50348e+08 -6.60603e-10 -1.98336e+07)
(-5.53544e+07 -8.0779e+07 -3.59355e-09 1.48083e+08 7.0868e-09 -1.98336e+07)
(-5.30062e+07 -8.36508e+07 9.69989e-10 1.45735e+08 3.53919e-10 -1.98336e+07)
(-5.0577e+07 -8.64543e+07 2.38705e-09 1.43305e+08 -3.30396e-09 -1.98336e+07)
(-4.80686e+07 -8.91873e+07 9.66849e-10 1.40797e+08 3.84401e-10 -1.98336e+07)
(-4.54833e+07 -9.18475e+07 1.92252e-09 1.38212e+08 7.96335e-10 -1.98336e+07)
(-4.2823e+07 -9.44329e+07 -9.72782e-10 1.35552e+08 -4.19312e-10 -1.98336e+07)
(-4.009e+07 -9.69412e+07 1.71955e-11 1.32819e+08 7.70502e-12 -1.98336e+07)
(-3.72865e+07 -9.93705e+07 -1.64908e-09 1.30015e+08 3.57551e-09 -1.98336e+07)
(-3.44148e+07 -1.01719e+08 -7.13518e-12 1.27143e+08 -3.44508e-12 -1.98336e+07)
(-3.14772e+07 -1.03984e+08 2.3935e-11 1.24206e+08 1.1981e-11 -1.98336e+07)
(-2.8476e+07 -1.06164e+08 -2.74811e-09 1.21205e+08 3.01032e-09 -1.98336e+07)
(-2.54139e+07 -1.08258e+08 2.78384e-09 1.18142e+08 -2.97452e-09 -1.98336e+07)
(-2.22932e+07 -1.10264e+08 1.92335e-09 1.15022e+08 -3.43576e-09 -1.98336e+07)
(-1.91165e+07 -1.12179e+08 1.949e-09 1.11845e+08 -3.42128e-09 -1.98336e+07)
(-1.58864e+07 -1.14004e+08 6.81418e-12 1.08615e+08 4.04302e-12 -1.98336e+07)
(-1.26055e+07 -1.15735e+08 -5.90498e-09 1.05334e+08 5.61734e-09 -1.98336e+07)
(-9.27653e+06 -1.17371e+08 2.08704e-09 1.02005e+08 -3.3389e-09 -1.98336e+07)
(-5.90218e+06 -1.18912e+08 4.27679e-10 9.86307e+07 -4.42297e-09 -1.98336e+07)
(-2.48519e+06 -1.20356e+08 -2.21031e-09 9.52137e+07 3.25857e-09 -1.98336e+07)
(971635 -1.21702e+08 0 9.17569e+07 0 -1.98336e+07)
(4.46548e+06 -1.22949e+08 -5.88499e-10 8.8263e+07 4.42079e-09 -1.98336e+07)
(7.99351e+06 -1.24095e+08 -6.3767e-12 8.4735e+07 -4.70286e-12 -1.98336e+07)
(1.15528e+07 -1.2514e+08 6.55003e-09 8.11757e+07 3.16127e-11 -1.98336e+07)
(1.51405e+07 -1.26083e+08 -2.41606e-09 7.7588e+07 3.10908e-09 -1.98336e+07)
(1.87537e+07 -1.26924e+08 1.61412e-09 7.39748e+07 1.30074e-09 -1.98336e+07)
(2.23894e+07 -1.2766e+08 1.62208e-09 7.03391e+07 1.34581e-09 -1.98336e+07)
(2.60447e+07 -1.28293e+08 -1.58837e-09 6.66838e+07 -1.3566e-09 -1.98336e+07)
(2.97165e+07 -1.28821e+08 3.39116e-09 6.3012e+07 -2.26145e-09 -1.98336e+07)