/*--------------------------------*- C++ -*----------------------------------*\
| =========                 |                                                 |
| \\      /  F ield         | OpenFOAM: The Open Source CFD Toolbox           |
|  \\    /   O peration     | Version:  2312                                  |
|   \\  /    A nd           | Website:  www.openfoam.com                      |
|    \\/     M anipulation  |                                                 |
\*---------------------------------------------------------------------------*/
FoamFile
{
    version     2.0;
    format      ascii;
    arch        "LSB;label=32;scalar=64";
    class       volVectorField;
    location    "90";
    object      U;
}
// * * * * * * * * * * * * * * * * * * * * * * * * * * * * * * * * * * * * * //

dimensions      [0 1 -1 0 0 0 0];

internalField   nonuniform List<vector> 
12870
(
(0.126908 0.000906133 0)
(0.126882 0.00271821 0)
(0.12683 0.00452974 0)
(0.126752 0.00634035 0)
(0.126649 0.00814966 0)
(0.12652 0.00995731 0)
(0.126364 0.0117629 0)
(0.126184 0.0135661 0)
(0.125977 0.0153666 0)
(0.125745 0.0171639 0)
(0.125487 0.0189577 0)
(0.125203 0.0207477 0)
(0.124894 0.0225334 0)
(0.12456 0.0243145 0)
(0.1242 0.0260907 0)
(0.123815 0.0278616 0)
(0.123404 0.0296267 0)
(0.122969 0.0313859 0)
(0.122508 0.0331386 0)
(0.122022 0.0348846 0)
(0.121512 0.0366234 0)
(0.120976 0.0383548 0)
(0.120416 0.0400784 0)
(0.119832 0.0417938 0)
(0.119223 0.0435006 0)
(0.118589 0.0451986 0)
(0.117932 0.0468874 0)
(0.11725 0.0485667 0)
(0.116545 0.050236 0)
(0.115816 0.0518951 0)
(0.115063 0.0535436 0)
(0.114286 0.0551811 0)
(0.113487 0.0568075 0)
(0.112664 0.0584222 0)
(0.111818 0.060025 0)
(0.11095 0.0616156 0)
(0.110059 0.0631936 0)
(0.109145 0.0647588 0)
(0.108209 0.0663107 0)
(0.107251 0.0678491 0)
(0.106272 0.0693737 0)
(0.10527 0.0708841 0)
(0.104247 0.0723801 0)
(0.103203 0.0738613 0)
(0.102138 0.0753275 0)
(0.101052 0.0767783 0)
(0.0999451 0.0782134 0)
(0.098818 0.0796326 0)
(0.0976708 0.0810355 0)
(0.0965037 0.082422 0)
(0.0953169 0.0837916 0)
(0.0941107 0.0851441 0)
(0.0928853 0.0864793 0)
(0.091641 0.0877968 0)
(0.0903779 0.0890965 0)
(0.0890965 0.0903779 0)
(0.0877968 0.091641 0)
(0.0864793 0.0928853 0)
(0.0851441 0.0941107 0)
(0.0837916 0.0953169 0)
(0.082422 0.0965037 0)
(0.0810355 0.0976708 0)
(0.0796326 0.098818 0)
(0.0782134 0.0999451 0)
(0.0767783 0.101052 0)
(0.0753275 0.102138 0)
(0.0738613 0.103203 0)
(0.0723801 0.104247 0)
(0.0708841 0.10527 0)
(0.0693737 0.106272 0)
(0.0678491 0.107251 0)
(0.0663107 0.108209 0)
(0.0647588 0.109145 0)
(0.0631936 0.110059 0)
(0.0616156 0.11095 0)
(0.060025 0.111818 0)
(0.0584222 0.112664 0)
(0.0568075 0.113487 0)
(0.0551811 0.114286 0)
(0.0535436 0.115063 0)
(0.0518951 0.115816 0)
(0.050236 0.116545 0)
(0.0485667 0.11725 0)
(0.0468874 0.117932 0)
(0.0451986 0.118589 0)
(0.0435006 0.119223 0)
(0.0417938 0.119832 0)
(0.0400784 0.120416 0)
(0.0383548 0.120976 0)
(0.0366234 0.121512 0)
(0.0348846 0.122022 0)
(0.0331386 0.122508 0)
(0.0313859 0.122969 0)
(0.0296267 0.123404 0)
(0.0278616 0.123815 0)
(0.0260907 0.1242 0)
(0.0243145 0.12456 0)
(0.0225334 0.124894 0)
(0.0207477 0.125203 0)
(0.0189577 0.125487 0)
(0.0171639 0.125745 0)
(0.0153666 0.125977 0)
(0.0135661 0.126184 0)
(0.0117629 0.126364 0)
(0.00995731 0.12652 0)
(0.00814966 0.126649 0)
(0.00634035 0.126752 0)
(0.00452974 0.12683 0)
(0.00271821 0.126882 0)
(0.000906133 0.126908 0)
(0.126613 0.000904028 0)
(0.126587 0.0027119 0)
(0.126535 0.00451922 0)
(0.126458 0.00632562 0)
(0.126355 0.00813072 0)
(0.126226 0.00993417 0)
(0.126071 0.0117356 0)
(0.12589 0.0135346 0)
(0.125684 0.0153309 0)
(0.125453 0.017124 0)
(0.125195 0.0189137 0)
(0.124912 0.0206995 0)
(0.124604 0.0224811 0)
(0.12427 0.0242581 0)
(0.123911 0.0260301 0)
(0.123527 0.0277968 0)
(0.123118 0.0295579 0)
(0.122683 0.0313129 0)
(0.122223 0.0330616 0)
(0.121739 0.0348035 0)
(0.121229 0.0365383 0)
(0.120695 0.0382657 0)
(0.120136 0.0399853 0)
(0.119553 0.0416967 0)
(0.118946 0.0433996 0)
(0.118314 0.0450936 0)
(0.117658 0.0467785 0)
(0.116978 0.0484538 0)
(0.116274 0.0501193 0)
(0.115547 0.0517745 0)
(0.114795 0.0534192 0)
(0.114021 0.0550529 0)
(0.113223 0.0566755 0)
(0.112402 0.0582865 0)
(0.111559 0.0598856 0)
(0.110692 0.0614725 0)
(0.109803 0.0630468 0)
(0.108892 0.0646083 0)
(0.107958 0.0661566 0)
(0.107002 0.0676915 0)
(0.106025 0.0692125 0)
(0.105026 0.0707194 0)
(0.104005 0.0722119 0)
(0.102963 0.0736897 0)
(0.1019 0.0751525 0)
(0.100817 0.0765999 0)
(0.0997128 0.0780317 0)
(0.0985884 0.0794476 0)
(0.0974439 0.0808473 0)
(0.0962795 0.0822305 0)
(0.0950955 0.0835969 0)
(0.0938921 0.0849463 0)
(0.0926695 0.0862784 0)
(0.0914281 0.0875928 0)
(0.0901679 0.0888895 0)
(0.0888895 0.0901679 0)
(0.0875928 0.0914281 0)
(0.0862784 0.0926695 0)
(0.0849463 0.0938921 0)
(0.0835969 0.0950955 0)
(0.0822305 0.0962795 0)
(0.0808473 0.0974439 0)
(0.0794476 0.0985884 0)
(0.0780317 0.0997128 0)
(0.0765999 0.100817 0)
(0.0751525 0.1019 0)
(0.0736897 0.102963 0)
(0.0722119 0.104005 0)
(0.0707194 0.105026 0)
(0.0692125 0.106025 0)
(0.0676915 0.107002 0)
(0.0661566 0.107958 0)
(0.0646083 0.108892 0)
(0.0630468 0.109803 0)
(0.0614725 0.110692 0)
(0.0598856 0.111559 0)
(0.0582865 0.112402 0)
(0.0566755 0.113223 0)
(0.0550529 0.114021 0)
(0.0534192 0.114795 0)
(0.0517745 0.115547 0)
(0.0501193 0.116274 0)
(0.0484538 0.116978 0)
(0.0467785 0.117658 0)
(0.0450936 0.118314 0)
(0.0433996 0.118946 0)
(0.0416967 0.119553 0)
(0.0399853 0.120136 0)
(0.0382657 0.120695 0)
(0.0365383 0.121229 0)
(0.0348035 0.121739 0)
(0.0330616 0.122223 0)
(0.0313129 0.122683 0)
(0.0295579 0.123118 0)
(0.0277968 0.123527 0)
(0.0260301 0.123911 0)
(0.0242581 0.12427 0)
(0.0224811 0.124604 0)
(0.0206995 0.124912 0)
(0.0189137 0.125195 0)
(0.017124 0.125453 0)
(0.0153309 0.125684 0)
(0.0135346 0.12589 0)
(0.0117356 0.126071 0)
(0.00993417 0.126226 0)
(0.00813072 0.126355 0)
(0.00632562 0.126458 0)
(0.00451922 0.126535 0)
(0.0027119 0.126587 0)
(0.000904028 0.126613 0)
(0.126319 0.000901933 0)
(0.126294 0.00270562 0)
(0.126242 0.00450875 0)
(0.126165 0.00631096 0)
(0.126062 0.00811188 0)
(0.125933 0.00991115 0)
(0.125779 0.0117084 0)
(0.125599 0.0135033 0)
(0.125393 0.0152954 0)
(0.125162 0.0170844 0)
(0.124905 0.0188699 0)
(0.124623 0.0206515 0)
(0.124315 0.022429 0)
(0.123982 0.0242018 0)
(0.123624 0.0259698 0)
(0.123241 0.0277324 0)
(0.122832 0.0294894 0)
(0.122399 0.0312404 0)
(0.12194 0.032985 0)
(0.121457 0.0347229 0)
(0.120948 0.0364537 0)
(0.120416 0.038177 0)
(0.119858 0.0398926 0)
(0.119276 0.0416 0)
(0.11867 0.043299 0)
(0.11804 0.0449891 0)
(0.117385 0.0466701 0)
(0.116707 0.0483415 0)
(0.116005 0.0500031 0)
(0.115279 0.0516545 0)
(0.114529 0.0532954 0)
(0.113757 0.0549253 0)
(0.112961 0.0565441 0)
(0.112142 0.0581514 0)
(0.1113 0.0597468 0)
(0.110436 0.06133 0)
(0.109549 0.0629007 0)
(0.108639 0.0644586 0)
(0.107708 0.0660033 0)
(0.106754 0.0675346 0)
(0.105779 0.0690521 0)
(0.104782 0.0705556 0)
(0.103764 0.0720446 0)
(0.102725 0.0735189 0)
(0.101664 0.0749783 0)
(0.100583 0.0764224 0)
(0.0994818 0.0778509 0)
(0.09836 0.0792635 0)
(0.0972181 0.0806599 0)
(0.0960564 0.0820399 0)
(0.0948751 0.0834032 0)
(0.0936745 0.0847495 0)
(0.0924548 0.0860784 0)
(0.0912162 0.0873899 0)
(0.089959 0.0886835 0)
(0.0886835 0.089959 0)
(0.0873899 0.0912162 0)
(0.0860784 0.0924548 0)
(0.0847495 0.0936745 0)
(0.0834032 0.0948751 0)
(0.0820399 0.0960564 0)
(0.0806599 0.0972181 0)
(0.0792635 0.09836 0)
(0.0778509 0.0994818 0)
(0.0764224 0.100583 0)
(0.0749783 0.101664 0)
(0.0735189 0.102725 0)
(0.0720446 0.103764 0)
(0.0705556 0.104782 0)
(0.0690521 0.105779 0)
(0.0675346 0.106754 0)
(0.0660033 0.107708 0)
(0.0644586 0.108639 0)
(0.0629007 0.109549 0)
(0.06133 0.110436 0)
(0.0597468 0.1113 0)
(0.0581514 0.112142 0)
(0.0565441 0.112961 0)
(0.0549253 0.113757 0)
(0.0532954 0.114529 0)
(0.0516545 0.115279 0)
(0.0500031 0.116005 0)
(0.0483415 0.116707 0)
(0.0466701 0.117385 0)
(0.0449891 0.11804 0)
(0.043299 0.11867 0)
(0.0416 0.119276 0)
(0.0398926 0.119858 0)
(0.038177 0.120416 0)
(0.0364537 0.120948 0)
(0.0347229 0.121457 0)
(0.032985 0.12194 0)
(0.0312404 0.122399 0)
(0.0294894 0.122832 0)
(0.0277324 0.123241 0)
(0.0259698 0.123624 0)
(0.0242018 0.123982 0)
(0.022429 0.124315 0)
(0.0206515 0.124623 0)
(0.0188699 0.124905 0)
(0.0170844 0.125162 0)
(0.0152954 0.125393 0)
(0.0135033 0.125599 0)
(0.0117084 0.125779 0)
(0.00991115 0.125933 0)
(0.00811188 0.126062 0)
(0.00631096 0.126165 0)
(0.00450875 0.126242 0)
(0.00270562 0.126294 0)
(0.000901933 0.126319 0)
(0.126026 0.000899838 0)
(0.126 0.00269933 0)
(0.125949 0.00449827 0)
(0.125872 0.0062963 0)
(0.125769 0.00809304 0)
(0.125641 0.00988813 0)
(0.125487 0.0116812 0)
(0.125307 0.0134719 0)
(0.125102 0.0152598 0)
(0.124871 0.0170447 0)
(0.124615 0.018826 0)
(0.124333 0.0206035 0)
(0.124027 0.0223769 0)
(0.123694 0.0241456 0)
(0.123337 0.0259094 0)
(0.122954 0.027668 0)
(0.122547 0.0294209 0)
(0.122114 0.0311678 0)
(0.121657 0.0329084 0)
(0.121174 0.0346422 0)
(0.120667 0.036369 0)
(0.120136 0.0380883 0)
(0.11958 0.0397999 0)
(0.118999 0.0415034 0)
(0.118394 0.0431984 0)
(0.117765 0.0448846 0)
(0.117112 0.0465617 0)
(0.116436 0.0482292 0)
(0.115735 0.049887 0)
(0.115011 0.0515345 0)
(0.114263 0.0531716 0)
(0.113492 0.0547978 0)
(0.112698 0.0564128 0)
(0.111881 0.0580163 0)
(0.111041 0.059608 0)
(0.110179 0.0611875 0)
(0.109294 0.0627546 0)
(0.108387 0.0643089 0)
(0.107457 0.06585 0)
(0.106506 0.0673777 0)
(0.105533 0.0688917 0)
(0.104539 0.0703916 0)
(0.103523 0.0718772 0)
(0.102486 0.0733482 0)
(0.101428 0.0748041 0)
(0.10035 0.0762448 0)
(0.0992507 0.07767 0)
(0.0981315 0.0790793 0)
(0.0969922 0.0804725 0)
(0.0958332 0.0818493 0)
(0.0946547 0.0832094 0)
(0.0934569 0.0845526 0)
(0.09224 0.0858785 0)
(0.0910043 0.0871868 0)
(0.08975 0.0884775 0)
(0.0884775 0.08975 0)
(0.0871868 0.0910043 0)
(0.0858785 0.09224 0)
(0.0845526 0.0934569 0)
(0.0832094 0.0946547 0)
(0.0818493 0.0958332 0)
(0.0804725 0.0969922 0)
(0.0790793 0.0981315 0)
(0.07767 0.0992507 0)
(0.0762448 0.10035 0)
(0.0748041 0.101428 0)
(0.0733482 0.102486 0)
(0.0718772 0.103523 0)
(0.0703916 0.104539 0)
(0.0688917 0.105533 0)
(0.0673777 0.106506 0)
(0.06585 0.107457 0)
(0.0643089 0.108387 0)
(0.0627546 0.109294 0)
(0.0611875 0.110179 0)
(0.059608 0.111041 0)
(0.0580163 0.111881 0)
(0.0564128 0.112698 0)
(0.0547978 0.113492 0)
(0.0531716 0.114263 0)
(0.0515345 0.115011 0)
(0.049887 0.115735 0)
(0.0482292 0.116436 0)
(0.0465617 0.117112 0)
(0.0448846 0.117765 0)
(0.0431984 0.118394 0)
(0.0415034 0.118999 0)
(0.0397999 0.11958 0)
(0.0380883 0.120136 0)
(0.036369 0.120667 0)
(0.0346422 0.121174 0)
(0.0329084 0.121657 0)
(0.0311678 0.122114 0)
(0.0294209 0.122547 0)
(0.027668 0.122954 0)
(0.0259094 0.123337 0)
(0.0241456 0.123694 0)
(0.0223769 0.124027 0)
(0.0206035 0.124333 0)
(0.018826 0.124615 0)
(0.0170447 0.124871 0)
(0.0152598 0.125102 0)
(0.0134719 0.125307 0)
(0.0116812 0.125487 0)
(0.00988813 0.125641 0)
(0.00809304 0.125769 0)
(0.0062963 0.125872 0)
(0.00449827 0.125949 0)
(0.00269933 0.126 0)
(0.000899838 0.126026 0)
(0.125734 0.000897753 0)
(0.125708 0.00269308 0)
(0.125657 0.00448785 0)
(0.12558 0.00628171 0)
(0.125478 0.00807429 0)
(0.125349 0.00986522 0)
(0.125196 0.0116541 0)
(0.125017 0.0134407 0)
(0.124812 0.0152245 0)
(0.124582 0.0170052 0)
(0.124326 0.0187824 0)
(0.124045 0.0205558 0)
(0.123739 0.022325 0)
(0.123408 0.0240897 0)
(0.123051 0.0258494 0)
(0.12267 0.0276039 0)
(0.122263 0.0293527 0)
(0.121831 0.0310956 0)
(0.121375 0.0328321 0)
(0.120894 0.0345619 0)
(0.120388 0.0362847 0)
(0.119857 0.0380001 0)
(0.119303 0.0397077 0)
(0.118723 0.0414072 0)
(0.11812 0.0430983 0)
(0.117493 0.0447806 0)
(0.116841 0.0464538 0)
(0.116166 0.0481175 0)
(0.115467 0.0497714 0)
(0.114744 0.0514151 0)
(0.113999 0.0530484 0)
(0.113229 0.0546708 0)
(0.112437 0.0562821 0)
(0.111622 0.0578819 0)
(0.110784 0.0594699 0)
(0.109924 0.0610458 0)
(0.109041 0.0626092 0)
(0.108136 0.0641599 0)
(0.107208 0.0656974 0)
(0.106259 0.0672216 0)
(0.105289 0.0687321 0)
(0.104297 0.0702286 0)
(0.103283 0.0717107 0)
(0.102249 0.0731782 0)
(0.101193 0.0746308 0)
(0.100117 0.0760682 0)
(0.0990207 0.0774901 0)
(0.0979041 0.0788961 0)
(0.0967675 0.0802861 0)
(0.0956112 0.0816597 0)
(0.0944354 0.0830167 0)
(0.0932404 0.0843567 0)
(0.0920263 0.0856795 0)
(0.0907934 0.0869849 0)
(0.0895421 0.0882725 0)
(0.0882725 0.0895421 0)
(0.0869849 0.0907934 0)
(0.0856795 0.0920263 0)
(0.0843567 0.0932404 0)
(0.0830167 0.0944354 0)
(0.0816597 0.0956112 0)
(0.0802861 0.0967675 0)
(0.0788961 0.0979041 0)
(0.0774901 0.0990207 0)
(0.0760682 0.100117 0)
(0.0746308 0.101193 0)
(0.0731782 0.102249 0)
(0.0717107 0.103283 0)
(0.0702286 0.104297 0)
(0.0687321 0.105289 0)
(0.0672216 0.106259 0)
(0.0656974 0.107208 0)
(0.0641599 0.108136 0)
(0.0626092 0.109041 0)
(0.0610458 0.109924 0)
(0.0594699 0.110784 0)
(0.0578819 0.111622 0)
(0.0562821 0.112437 0)
(0.0546708 0.113229 0)
(0.0530484 0.113999 0)
(0.0514151 0.114744 0)
(0.0497714 0.115467 0)
(0.0481175 0.116166 0)
(0.0464538 0.116841 0)
(0.0447806 0.117493 0)
(0.0430983 0.11812 0)
(0.0414072 0.118723 0)
(0.0397077 0.119303 0)
(0.0380001 0.119857 0)
(0.0362847 0.120388 0)
(0.0345619 0.120894 0)
(0.0328321 0.121375 0)
(0.0310956 0.121831 0)
(0.0293527 0.122263 0)
(0.0276039 0.12267 0)
(0.0258494 0.123051 0)
(0.0240897 0.123408 0)
(0.022325 0.123739 0)
(0.0205558 0.124045 0)
(0.0187824 0.124326 0)
(0.0170052 0.124582 0)
(0.0152245 0.124812 0)
(0.0134407 0.125017 0)
(0.0116541 0.125196 0)
(0.00986522 0.125349 0)
(0.00807429 0.125478 0)
(0.00628171 0.12558 0)
(0.00448785 0.125657 0)
(0.00269308 0.125708 0)
(0.000897753 0.125734 0)
(0.125442 0.000895672 0)
(0.125417 0.00268683 0)
(0.125366 0.00447745 0)
(0.125289 0.00626715 0)
(0.125187 0.00805557 0)
(0.125059 0.00984235 0)
(0.124906 0.0116271 0)
(0.124727 0.0134095 0)
(0.124523 0.0151892 0)
(0.124293 0.0169658 0)
(0.124038 0.0187389 0)
(0.123758 0.0205082 0)
(0.123452 0.0222733 0)
(0.123122 0.0240338 0)
(0.122766 0.0257895 0)
(0.122385 0.0275399 0)
(0.12198 0.0292847 0)
(0.121549 0.0310235 0)
(0.121094 0.032756 0)
(0.120613 0.0344818 0)
(0.120109 0.0362006 0)
(0.11958 0.037912 0)
(0.119026 0.0396157 0)
(0.118448 0.0413113 0)
(0.117846 0.0429984 0)
(0.11722 0.0446768 0)
(0.11657 0.0463461 0)
(0.115897 0.048006 0)
(0.115199 0.049656 0)
(0.114479 0.0512959 0)
(0.113734 0.0529254 0)
(0.112967 0.0545441 0)
(0.112177 0.0561516 0)
(0.111363 0.0577477 0)
(0.110527 0.059332 0)
(0.109669 0.0609043 0)
(0.108788 0.0624641 0)
(0.107885 0.0640111 0)
(0.10696 0.0655452 0)
(0.106013 0.0670658 0)
(0.105045 0.0685728 0)
(0.104055 0.0700658 0)
(0.103044 0.0715445 0)
(0.102012 0.0730086 0)
(0.100959 0.0744578 0)
(0.0998851 0.0758919 0)
(0.0987912 0.0773104 0)
(0.0976772 0.0787132 0)
(0.0965432 0.0801 0)
(0.0953896 0.0814704 0)
(0.0942165 0.0828242 0)
(0.0930242 0.0841612 0)
(0.091813 0.0854809 0)
(0.090583 0.0867832 0)
(0.0893345 0.0880679 0)
(0.0880679 0.0893345 0)
(0.0867832 0.090583 0)
(0.0854809 0.091813 0)
(0.0841612 0.0930242 0)
(0.0828242 0.0942165 0)
(0.0814704 0.0953896 0)
(0.0801 0.0965432 0)
(0.0787132 0.0976772 0)
(0.0773104 0.0987912 0)
(0.0758919 0.0998851 0)
(0.0744578 0.100959 0)
(0.0730086 0.102012 0)
(0.0715445 0.103044 0)
(0.0700658 0.104055 0)
(0.0685728 0.105045 0)
(0.0670658 0.106013 0)
(0.0655452 0.10696 0)
(0.0640111 0.107885 0)
(0.0624641 0.108788 0)
(0.0609043 0.109669 0)
(0.059332 0.110527 0)
(0.0577477 0.111363 0)
(0.0561516 0.112177 0)
(0.0545441 0.112967 0)
(0.0529254 0.113734 0)
(0.0512959 0.114479 0)
(0.049656 0.115199 0)
(0.048006 0.115897 0)
(0.0463461 0.11657 0)
(0.0446768 0.11722 0)
(0.0429984 0.117846 0)
(0.0413113 0.118448 0)
(0.0396157 0.119026 0)
(0.037912 0.11958 0)
(0.0362006 0.120109 0)
(0.0344818 0.120613 0)
(0.032756 0.121094 0)
(0.0310235 0.121549 0)
(0.0292847 0.12198 0)
(0.0275399 0.122385 0)
(0.0257895 0.122766 0)
(0.0240338 0.123122 0)
(0.0222733 0.123452 0)
(0.0205082 0.123758 0)
(0.0187389 0.124038 0)
(0.0169658 0.124293 0)
(0.0151892 0.124523 0)
(0.0134095 0.124727 0)
(0.0116271 0.124906 0)
(0.00984235 0.125059 0)
(0.00805557 0.125187 0)
(0.00626715 0.125289 0)
(0.00447745 0.125366 0)
(0.00268683 0.125417 0)
(0.000895672 0.125442 0)
(0.125152 0.000893602 0)
(0.125127 0.00268062 0)
(0.125076 0.0044671 0)
(0.124999 0.00625266 0)
(0.124897 0.00803695 0)
(0.12477 0.0098196 0)
(0.124617 0.0116002 0)
(0.124439 0.0133785 0)
(0.124235 0.0151541 0)
(0.124006 0.0169265 0)
(0.123751 0.0186956 0)
(0.123472 0.0204608 0)
(0.123167 0.0222218 0)
(0.122837 0.0239783 0)
(0.122482 0.0257299 0)
(0.122102 0.0274762 0)
(0.121698 0.029217 0)
(0.121268 0.0309518 0)
(0.120814 0.0326803 0)
(0.120335 0.0344021 0)
(0.119831 0.0361169 0)
(0.119303 0.0378244 0)
(0.118751 0.0395241 0)
(0.118174 0.0412158 0)
(0.117574 0.042899 0)
(0.116949 0.0445736 0)
(0.116301 0.046239 0)
(0.115629 0.047895 0)
(0.114933 0.0495412 0)
(0.114214 0.0511774 0)
(0.113471 0.0528031 0)
(0.112706 0.054418 0)
(0.111917 0.0560218 0)
(0.111106 0.0576142 0)
(0.110272 0.0591949 0)
(0.109415 0.0607635 0)
(0.108537 0.0623197 0)
(0.107636 0.0638632 0)
(0.106713 0.0653936 0)
(0.105768 0.0669108 0)
(0.104802 0.0684143 0)
(0.103814 0.0699038 0)
(0.102805 0.0713791 0)
(0.101776 0.0728398 0)
(0.100725 0.0742857 0)
(0.0996542 0.0757164 0)
(0.0985628 0.0771317 0)
(0.0974514 0.0785313 0)
(0.0963201 0.0799148 0)
(0.0951691 0.0812821 0)
(0.0939987 0.0826328 0)
(0.0928092 0.0839666 0)
(0.0916007 0.0852833 0)
(0.0903736 0.0865826 0)
(0.089128 0.0878643 0)
(0.0878643 0.089128 0)
(0.0865826 0.0903736 0)
(0.0852833 0.0916007 0)
(0.0839666 0.0928092 0)
(0.0826328 0.0939987 0)
(0.0812821 0.0951691 0)
(0.0799148 0.0963201 0)
(0.0785313 0.0974514 0)
(0.0771317 0.0985628 0)
(0.0757164 0.0996542 0)
(0.0742857 0.100725 0)
(0.0728398 0.101776 0)
(0.0713791 0.102805 0)
(0.0699038 0.103814 0)
(0.0684143 0.104802 0)
(0.0669108 0.105768 0)
(0.0653936 0.106713 0)
(0.0638632 0.107636 0)
(0.0623197 0.108537 0)
(0.0607635 0.109415 0)
(0.0591949 0.110272 0)
(0.0576142 0.111106 0)
(0.0560218 0.111917 0)
(0.054418 0.112706 0)
(0.0528031 0.113471 0)
(0.0511774 0.114214 0)
(0.0495412 0.114933 0)
(0.047895 0.115629 0)
(0.046239 0.116301 0)
(0.0445736 0.116949 0)
(0.042899 0.117574 0)
(0.0412158 0.118174 0)
(0.0395241 0.118751 0)
(0.0378244 0.119303 0)
(0.0361169 0.119831 0)
(0.0344021 0.120335 0)
(0.0326803 0.120814 0)
(0.0309518 0.121268 0)
(0.029217 0.121698 0)
(0.0274762 0.122102 0)
(0.0257299 0.122482 0)
(0.0239783 0.122837 0)
(0.0222218 0.123167 0)
(0.0204608 0.123472 0)
(0.0186956 0.123751 0)
(0.0169265 0.124006 0)
(0.0151541 0.124235 0)
(0.0133785 0.124439 0)
(0.0116002 0.124617 0)
(0.0098196 0.12477 0)
(0.00803695 0.124897 0)
(0.00625266 0.124999 0)
(0.0044671 0.125076 0)
(0.00268062 0.125127 0)
(0.000893602 0.125152 0)
(0.124863 0.000891538 0)
(0.124838 0.00267443 0)
(0.124787 0.00445678 0)
(0.124711 0.00623822 0)
(0.124609 0.00801839 0)
(0.124482 0.00979693 0)
(0.124329 0.0115735 0)
(0.124151 0.0133476 0)
(0.123948 0.0151191 0)
(0.123719 0.0168875 0)
(0.123466 0.0186524 0)
(0.123187 0.0204135 0)
(0.122883 0.0221705 0)
(0.122554 0.0239229 0)
(0.122199 0.0256705 0)
(0.12182 0.0274128 0)
(0.121417 0.0291495 0)
(0.120988 0.0308803 0)
(0.120535 0.0326048 0)
(0.120057 0.0343227 0)
(0.119554 0.0360335 0)
(0.119028 0.037737 0)
(0.118477 0.0394328 0)
(0.117902 0.0411206 0)
(0.117302 0.0428 0)
(0.116679 0.0444706 0)
(0.116032 0.0461322 0)
(0.115362 0.0477844 0)
(0.114668 0.0494268 0)
(0.11395 0.0510592 0)
(0.113209 0.0526811 0)
(0.112446 0.0542923 0)
(0.111659 0.0558925 0)
(0.110849 0.0574812 0)
(0.110017 0.0590582 0)
(0.109163 0.0606232 0)
(0.108286 0.0621758 0)
(0.107387 0.0637157 0)
(0.106466 0.0652427 0)
(0.105524 0.0667563 0)
(0.10456 0.0682563 0)
(0.103575 0.0697424 0)
(0.102568 0.0712143 0)
(0.101541 0.0726716 0)
(0.100493 0.0741142 0)
(0.0994241 0.0755416 0)
(0.0983353 0.0769536 0)
(0.0972264 0.07835 0)
(0.0960977 0.0797303 0)
(0.0949494 0.0810944 0)
(0.0937817 0.082442 0)
(0.0925949 0.0837727 0)
(0.0913892 0.0850864 0)
(0.0901649 0.0863827 0)
(0.0889222 0.0876614 0)
(0.0876614 0.0889222 0)
(0.0863827 0.0901649 0)
(0.0850864 0.0913892 0)
(0.0837727 0.0925949 0)
(0.082442 0.0937817 0)
(0.0810944 0.0949494 0)
(0.0797303 0.0960977 0)
(0.07835 0.0972264 0)
(0.0769536 0.0983353 0)
(0.0755416 0.0994241 0)
(0.0741142 0.100493 0)
(0.0726716 0.101541 0)
(0.0712143 0.102568 0)
(0.0697424 0.103575 0)
(0.0682563 0.10456 0)
(0.0667563 0.105524 0)
(0.0652427 0.106466 0)
(0.0637157 0.107387 0)
(0.0621758 0.108286 0)
(0.0606232 0.109163 0)
(0.0590582 0.110017 0)
(0.0574812 0.110849 0)
(0.0558925 0.111659 0)
(0.0542923 0.112446 0)
(0.0526811 0.113209 0)
(0.0510592 0.11395 0)
(0.0494268 0.114668 0)
(0.0477844 0.115362 0)
(0.0461322 0.116032 0)
(0.0444706 0.116679 0)
(0.0428 0.117302 0)
(0.0411206 0.117902 0)
(0.0394328 0.118477 0)
(0.037737 0.119028 0)
(0.0360335 0.119554 0)
(0.0343227 0.120057 0)
(0.0326048 0.120535 0)
(0.0308803 0.120988 0)
(0.0291495 0.121417 0)
(0.0274128 0.12182 0)
(0.0256705 0.122199 0)
(0.0239229 0.122554 0)
(0.0221705 0.122883 0)
(0.0204135 0.123187 0)
(0.0186524 0.123466 0)
(0.0168875 0.123719 0)
(0.0151191 0.123948 0)
(0.0133476 0.124151 0)
(0.0115735 0.124329 0)
(0.00979693 0.124482 0)
(0.00801839 0.124609 0)
(0.00623822 0.124711 0)
(0.00445678 0.124787 0)
(0.00267443 0.124838 0)
(0.000891538 0.124863 0)
(0.124576 0.000889486 0)
(0.124551 0.00266828 0)
(0.1245 0.00444652 0)
(0.124424 0.00622386 0)
(0.124322 0.00799993 0)
(0.124195 0.00977437 0)
(0.124043 0.0115468 0)
(0.123865 0.0133169 0)
(0.123663 0.0150843 0)
(0.123435 0.0168486 0)
(0.123181 0.0186094 0)
(0.122903 0.0203665 0)
(0.1226 0.0221194 0)
(0.122271 0.0238678 0)
(0.121918 0.0256114 0)
(0.12154 0.0273497 0)
(0.121137 0.0290824 0)
(0.120709 0.0308092 0)
(0.120257 0.0325298 0)
(0.11978 0.0342437 0)
(0.119279 0.0359506 0)
(0.118754 0.0376502 0)
(0.118204 0.0393421 0)
(0.11763 0.0410259 0)
(0.117032 0.0427015 0)
(0.116411 0.0443683 0)
(0.115765 0.046026 0)
(0.115096 0.0476744 0)
(0.114404 0.049313 0)
(0.113688 0.0509416 0)
(0.112949 0.0525599 0)
(0.112187 0.0541673 0)
(0.111402 0.0557638 0)
(0.110594 0.0573489 0)
(0.109764 0.0589223 0)
(0.108911 0.0604836 0)
(0.108037 0.0620326 0)
(0.10714 0.063569 0)
(0.106221 0.0650925 0)
(0.105281 0.0666026 0)
(0.104319 0.0680992 0)
(0.103336 0.0695818 0)
(0.102332 0.0710503 0)
(0.101307 0.0725043 0)
(0.100261 0.0739436 0)
(0.0991952 0.0753677 0)
(0.0981089 0.0767765 0)
(0.0970025 0.0781696 0)
(0.0958764 0.0795468 0)
(0.0947308 0.0809077 0)
(0.0935658 0.0822522 0)
(0.0923817 0.0835799 0)
(0.0911788 0.0848905 0)
(0.0899573 0.0861838 0)
(0.0887175 0.0874596 0)
(0.0874596 0.0887175 0)
(0.0861838 0.0899573 0)
(0.0848905 0.0911788 0)
(0.0835799 0.0923817 0)
(0.0822522 0.0935658 0)
(0.0809077 0.0947308 0)
(0.0795468 0.0958764 0)
(0.0781696 0.0970025 0)
(0.0767765 0.0981089 0)
(0.0753677 0.0991952 0)
(0.0739436 0.100261 0)
(0.0725043 0.101307 0)
(0.0710503 0.102332 0)
(0.0695818 0.103336 0)
(0.0680992 0.104319 0)
(0.0666026 0.105281 0)
(0.0650925 0.106221 0)
(0.063569 0.10714 0)
(0.0620326 0.108037 0)
(0.0604836 0.108911 0)
(0.0589223 0.109764 0)
(0.0573489 0.110594 0)
(0.0557638 0.111402 0)
(0.0541673 0.112187 0)
(0.0525599 0.112949 0)
(0.0509416 0.113688 0)
(0.049313 0.114404 0)
(0.0476744 0.115096 0)
(0.046026 0.115765 0)
(0.0443683 0.116411 0)
(0.0427015 0.117032 0)
(0.0410259 0.11763 0)
(0.0393421 0.118204 0)
(0.0376502 0.118754 0)
(0.0359506 0.119279 0)
(0.0342437 0.11978 0)
(0.0325298 0.120257 0)
(0.0308092 0.120709 0)
(0.0290824 0.121137 0)
(0.0273497 0.12154 0)
(0.0256114 0.121918 0)
(0.0238678 0.122271 0)
(0.0221194 0.1226 0)
(0.0203665 0.122903 0)
(0.0186094 0.123181 0)
(0.0168486 0.123435 0)
(0.0150843 0.123663 0)
(0.0133169 0.123865 0)
(0.0115468 0.124043 0)
(0.00977437 0.124195 0)
(0.00799993 0.124322 0)
(0.00622386 0.124424 0)
(0.00444652 0.1245 0)
(0.00266828 0.124551 0)
(0.000889486 0.124576 0)
(0.12429 0.000887443 0)
(0.124265 0.00266215 0)
(0.124214 0.00443631 0)
(0.124138 0.00620957 0)
(0.124037 0.00798156 0)
(0.12391 0.00975193 0)
(0.123758 0.0115203 0)
(0.123581 0.0132863 0)
(0.123379 0.0150496 0)
(0.123151 0.0168099 0)
(0.122899 0.0185667 0)
(0.122621 0.0203197 0)
(0.122318 0.0220686 0)
(0.121991 0.023813 0)
(0.121638 0.0255526 0)
(0.121261 0.0272869 0)
(0.120859 0.0290157 0)
(0.120432 0.0307385 0)
(0.119981 0.0324551 0)
(0.119505 0.034165 0)
(0.119005 0.035868 0)
(0.118481 0.0375637 0)
(0.117933 0.0392517 0)
(0.11736 0.0409317 0)
(0.116764 0.0426034 0)
(0.116143 0.0442664 0)
(0.115499 0.0459203 0)
(0.114832 0.0475649 0)
(0.114141 0.0491998 0)
(0.113427 0.0508247 0)
(0.112689 0.0524392 0)
(0.111929 0.054043 0)
(0.111146 0.0556357 0)
(0.11034 0.0572172 0)
(0.109512 0.0587869 0)
(0.108661 0.0603447 0)
(0.107789 0.0618902 0)
(0.106894 0.0634231 0)
(0.105977 0.064943 0)
(0.105039 0.0664497 0)
(0.10408 0.0679428 0)
(0.103099 0.0694221 0)
(0.102097 0.0708872 0)
(0.101074 0.0723378 0)
(0.100031 0.0737738 0)
(0.0989674 0.0751946 0)
(0.0978836 0.0766002 0)
(0.0967798 0.0779901 0)
(0.0956563 0.0793641 0)
(0.0945132 0.0807219 0)
(0.0933509 0.0820633 0)
(0.0921696 0.0833879 0)
(0.0909695 0.0846956 0)
(0.0897508 0.0859859 0)
(0.0885138 0.0872588 0)
(0.0872588 0.0885138 0)
(0.0859859 0.0897508 0)
(0.0846956 0.0909695 0)
(0.0833879 0.0921696 0)
(0.0820633 0.0933509 0)
(0.0807219 0.0945132 0)
(0.0793641 0.0956563 0)
(0.0779901 0.0967798 0)
(0.0766002 0.0978836 0)
(0.0751946 0.0989674 0)
(0.0737738 0.100031 0)
(0.0723378 0.101074 0)
(0.0708872 0.102097 0)
(0.0694221 0.103099 0)
(0.0679428 0.10408 0)
(0.0664497 0.105039 0)
(0.064943 0.105977 0)
(0.0634231 0.106894 0)
(0.0618902 0.107789 0)
(0.0603447 0.108661 0)
(0.0587869 0.109512 0)
(0.0572172 0.11034 0)
(0.0556357 0.111146 0)
(0.054043 0.111929 0)
(0.0524392 0.112689 0)
(0.0508247 0.113427 0)
(0.0491998 0.114141 0)
(0.0475649 0.114832 0)
(0.0459203 0.115499 0)
(0.0442664 0.116143 0)
(0.0426034 0.116764 0)
(0.0409317 0.11736 0)
(0.0392517 0.117933 0)
(0.0375637 0.118481 0)
(0.035868 0.119005 0)
(0.034165 0.119505 0)
(0.0324551 0.119981 0)
(0.0307385 0.120432 0)
(0.0290157 0.120859 0)
(0.0272869 0.121261 0)
(0.0255526 0.121638 0)
(0.023813 0.121991 0)
(0.0220686 0.122318 0)
(0.0203197 0.122621 0)
(0.0185667 0.122899 0)
(0.0168099 0.123151 0)
(0.0150496 0.123379 0)
(0.0132863 0.123581 0)
(0.0115203 0.123758 0)
(0.00975193 0.12391 0)
(0.00798156 0.124037 0)
(0.00620957 0.124138 0)
(0.00443631 0.124214 0)
(0.00266215 0.124265 0)
(0.000887443 0.12429 0)
(0.124006 0.000885412 0)
(0.12398 0.00265606 0)
(0.12393 0.00442616 0)
(0.123854 0.00619536 0)
(0.123753 0.0079633 0)
(0.123626 0.00972961 0)
(0.123475 0.0114939 0)
(0.123298 0.0132559 0)
(0.123096 0.0150152 0)
(0.122869 0.0167714 0)
(0.122617 0.0185242 0)
(0.12234 0.0202732 0)
(0.122038 0.0220181 0)
(0.121711 0.0237585 0)
(0.12136 0.0254941 0)
(0.120983 0.0272244 0)
(0.120582 0.0289493 0)
(0.120157 0.0306682 0)
(0.119706 0.0323808 0)
(0.119232 0.0340868 0)
(0.118733 0.0357859 0)
(0.11821 0.0374777 0)
(0.117663 0.0391619 0)
(0.117091 0.0408381 0)
(0.116496 0.0425059 0)
(0.115878 0.0441651 0)
(0.115235 0.0458152 0)
(0.114569 0.0474561 0)
(0.11388 0.0490872 0)
(0.113167 0.0507084 0)
(0.112432 0.0523192 0)
(0.111673 0.0539193 0)
(0.110892 0.0555084 0)
(0.110088 0.0570862 0)
(0.109261 0.0586524 0)
(0.108413 0.0602066 0)
(0.107542 0.0617486 0)
(0.106649 0.0632779 0)
(0.105735 0.0647944 0)
(0.104799 0.0662976 0)
(0.103841 0.0677873 0)
(0.102863 0.0692632 0)
(0.101863 0.070725 0)
(0.100843 0.0721723 0)
(0.0998021 0.0736049 0)
(0.0987409 0.0750225 0)
(0.0976596 0.0764249 0)
(0.0965583 0.0778116 0)
(0.0954374 0.0791825 0)
(0.0942969 0.0805372 0)
(0.0931373 0.0818755 0)
(0.0919587 0.0831971 0)
(0.0907613 0.0845017 0)
(0.0895454 0.0857891 0)
(0.0883112 0.0870591 0)
(0.0870591 0.0883112 0)
(0.0857891 0.0895454 0)
(0.0845017 0.0907613 0)
(0.0831971 0.0919587 0)
(0.0818755 0.0931373 0)
(0.0805372 0.0942969 0)
(0.0791825 0.0954374 0)
(0.0778116 0.0965583 0)
(0.0764249 0.0976596 0)
(0.0750225 0.0987409 0)
(0.0736049 0.0998021 0)
(0.0721723 0.100843 0)
(0.070725 0.101863 0)
(0.0692632 0.102863 0)
(0.0677873 0.103841 0)
(0.0662976 0.104799 0)
(0.0647944 0.105735 0)
(0.0632779 0.106649 0)
(0.0617486 0.107542 0)
(0.0602066 0.108413 0)
(0.0586524 0.109261 0)
(0.0570862 0.110088 0)
(0.0555084 0.110892 0)
(0.0539193 0.111673 0)
(0.0523192 0.112432 0)
(0.0507084 0.113167 0)
(0.0490872 0.11388 0)
(0.0474561 0.114569 0)
(0.0458152 0.115235 0)
(0.0441651 0.115878 0)
(0.0425059 0.116496 0)
(0.0408381 0.117091 0)
(0.0391619 0.117663 0)
(0.0374777 0.11821 0)
(0.0357859 0.118733 0)
(0.0340868 0.119232 0)
(0.0323808 0.119706 0)
(0.0306682 0.120157 0)
(0.0289493 0.120582 0)
(0.0272244 0.120983 0)
(0.0254941 0.12136 0)
(0.0237585 0.121711 0)
(0.0220181 0.122038 0)
(0.0202732 0.12234 0)
(0.0185242 0.122617 0)
(0.0167714 0.122869 0)
(0.0150152 0.123096 0)
(0.0132559 0.123298 0)
(0.0114939 0.123475 0)
(0.00972961 0.123626 0)
(0.0079633 0.123753 0)
(0.00619536 0.123854 0)
(0.00442616 0.12393 0)
(0.00265606 0.12398 0)
(0.000885412 0.124006 0)
(0.123723 0.000883393 0)
(0.123698 0.00265 0)
(0.123647 0.00441607 0)
(0.123571 0.00618123 0)
(0.123471 0.00794514 0)
(0.123344 0.00970742 0)
(0.123193 0.0114677 0)
(0.123017 0.0132257 0)
(0.122816 0.014981 0)
(0.122589 0.0167332 0)
(0.122338 0.018482 0)
(0.122061 0.020227 0)
(0.12176 0.0219679 0)
(0.121434 0.0237044 0)
(0.121083 0.025436 0)
(0.120708 0.0271624 0)
(0.120307 0.0288832 0)
(0.119883 0.0305982 0)
(0.119433 0.032307 0)
(0.11896 0.0340091 0)
(0.118462 0.0357043 0)
(0.11794 0.0373923 0)
(0.117394 0.0390726 0)
(0.116824 0.0407449 0)
(0.116231 0.042409 0)
(0.115613 0.0440644 0)
(0.114972 0.0457108 0)
(0.114308 0.0473479 0)
(0.11362 0.0489753 0)
(0.112909 0.0505927 0)
(0.112175 0.0521998 0)
(0.111418 0.0537963 0)
(0.110639 0.0553818 0)
(0.109837 0.0569561 0)
(0.109012 0.0585187 0)
(0.108165 0.0600693 0)
(0.107297 0.0616078 0)
(0.106406 0.0631336 0)
(0.105494 0.0646466 0)
(0.10456 0.0661464 0)
(0.103605 0.0676327 0)
(0.102628 0.0691052 0)
(0.101631 0.0705637 0)
(0.100613 0.0720077 0)
(0.0995746 0.0734371 0)
(0.0985158 0.0748515 0)
(0.0974369 0.0762506 0)
(0.0963381 0.0776342 0)
(0.0952197 0.0790019 0)
(0.0940819 0.0803535 0)