/*--------------------------------*- C++ -*----------------------------------*\
| =========                 |                                                 |
| \\      /  F ield         | OpenFOAM: The Open Source CFD Toolbox           |
|  \\    /   O peration     | Version:  2312                                  |
|   \\  /    A nd           | Website:  www.openfoam.com                      |
|    \\/     M anipulation  |                                                 |
\*---------------------------------------------------------------------------*/
FoamFile
{
    version     2.0;
    format      ascii;
    arch        "LSB;label=32;scalar=64";
    class       pointVectorField;
    location    "30";
    object      pointD;
}
// * * * * * * * * * * * * * * * * * * * * * * * * * * * * * * * * * * * * * //

dimensions      [0 1 0 0 0 0 0];

internalField   nonuniform List<vector> 
26196
(
(0.844683 0 0)
(0.617192 0 0)
(0 0.844683 0)
(0 0.617192 0)
(0.844683 0 0)
(0.617192 0 0)
(0 0.617192 0)
(0 0.844683 0)
(0.837552 0 0)
(0.830598 0 0)
(0.823896 0 0)
(0.817356 0 0)
(0.811016 0 0)
(0.804847 0 0)
(0.798857 0 0)
(0.793033 0 0)
(0.787373 0 0)
(0.781871 0 0)
(0.776523 0 0)
(0.771324 0 0)
(0.766269 0 0)
(0.761355 0 0)
(0.756577 0 0)
(0.751932 0 0)
(0.747415 0 0)
(0.743024 0 0)
(0.738753 0 0)
(0.734601 0 0)
(0.730563 0 0)
(0.726637 0 0)
(0.72282 0 0)
(0.719108 0 0)
(0.715498 0 0)
(0.711989 0 0)
(0.708577 0 0)
(0.705259 0 0)
(0.702034 0 0)
(0.698899 0 0)
(0.695851 0 0)
(0.692888 0 0)
(0.690009 0 0)
(0.68721 0 0)
(0.684491 0 0)
(0.681848 0 0)
(0.679281 0 0)
(0.676786 0 0)
(0.674364 0 0)
(0.672011 0 0)
(0.669726 0 0)
(0.667507 0 0)
(0.665353 0 0)
(0.663263 0 0)
(0.661234 0 0)
(0.659266 0 0)
(0.657356 0 0)
(0.655505 0 0)
(0.65371 0 0)
(0.651969 0 0)
(0.650283 0 0)
(0.648649 0 0)
(0.647067 0 0)
(0.645535 0 0)
(0.644052 0 0)
(0.642618 0 0)
(0.64123 0 0)
(0.639889 0 0)
(0.638592 0 0)
(0.63734 0 0)
(0.636131 0 0)
(0.634965 0 0)
(0.63384 0 0)
(0.632755 0 0)
(0.631711 0 0)
(0.630705 0 0)
(0.629737 0 0)
(0.628807 0 0)
(0.627913 0 0)
(0.627056 0 0)
(0.626233 0 0)
(0.625445 0 0)
(0.624691 0 0)
(0.62397 0 0)
(0.623282 0 0)
(0.622626 0 0)
(0.622 0 0)
(0.621406 0 0)
(0.620842 0 0)
(0.620307 0 0)
(0.619801 0 0)
(0.619324 0 0)
(0.618875 0 0)
(0.618453 0 0)
(0.618058 0 0)
(0.61769 0 0)
(0.617348 0 0)
(0.617031 0 0)
(0.616739 0 0)
(0.616472 0 0)
(0.616229 0 0)
(0.61601 0 0)
(0.615814 0 0)
(0.615641 0 0)
(0.615491 0 0)
(0.615362 0 0)
(0.615256 0 0)
(0.615171 0 0)
(0.615107 0 0)
(0.615064 0 0)
(0.615041 0 0)
(0.615038 0 0)
(0.615055 0 0)
(0.615091 0 0)
(0.615147 0 0)
(0.615221 0 0)
(0.615313 0 0)
(0.615424 0 0)
(0.615552 0 0)
(0.615698 0 0)
(0.615862 0 0)
(0.616042 0 0)
(0.616239 0 0)
(0.616453 0 0)
(0.616682 0 0)
(0.61693 0 0)
(0.617129 0.00881318 0)
(0.61694 0.0176246 0)
(0.616626 0.0264324 0)
(0.616186 0.0352348 0)
(0.61562 0.04403 0)
(0.614928 0.0528162 0)
(0.614111 0.0615917 0)
(0.613169 0.0703546 0)
(0.612102 0.0791032 0)
(0.61091 0.0878356 0)
(0.609594 0.0965501 0)
(0.608153 0.105245 0)
(0.606588 0.113918 0)
(0.604899 0.122568 0)
(0.603087 0.131194 0)
(0.601153 0.139792 0)
(0.599095 0.148362 0)
(0.596915 0.156902 0)
(0.594614 0.165409 0)
(0.592192 0.173883 0)
(0.589648 0.182322 0)
(0.586985 0.190723 0)
(0.584201 0.199085 0)
(0.581299 0.207407 0)
(0.578278 0.215687 0)
(0.575139 0.223922 0)
(0.571883 0.232112 0)
(0.56851 0.240254 0)
(0.565022 0.248348 0)
(0.561418 0.256391 0)
(0.557699 0.264382 0)
(0.553867 0.272318 0)
(0.549922 0.280199 0)
(0.545865 0.288023 0)
(0.541697 0.295789 0)
(0.537418 0.303494 0)
(0.533029 0.311137 0)
(0.528532 0.318716 0)
(0.523927 0.326231 0)
(0.519215 0.333679 0)
(0.514397 0.341059 0)
(0.509475 0.34837 0)
(0.504448 0.355609 0)
(0.499319 0.362776 0)
(0.494088 0.369869 0)
(0.488756 0.376887 0)
(0.483324 0.383828 0)
(0.477794 0.39069 0)
(0.472167 0.397473 0)
(0.466443 0.404175 0)
(0.460624 0.410794 0)
(0.454711 0.41733 0)
(0.448705 0.42378 0)
(0.442608 0.430144 0)
(0.436421 0.436421 0)
(0.430144 0.442608 0)
(0.42378 0.448705 0)
(0.41733 0.454711 0)
(0.410794 0.460624 0)
(0.404175 0.466443 0)
(0.397473 0.472167 0)
(0.39069 0.477794 0)
(0.383828 0.483324 0)
(0.376887 0.488756 0)
(0.369869 0.494088 0)
(0.362776 0.499319 0)
(0.355609 0.504448 0)
(0.34837 0.509475 0)
(0.341059 0.514397 0)
(0.333679 0.519215 0)
(0.326231 0.523927 0)
(0.318716 0.528532 0)
(0.311137 0.533029 0)
(0.303494 0.537418 0)
(0.295789 0.541697 0)
(0.288023 0.545865 0)
(0.280199 0.549922 0)
(0.272318 0.553867 0)
(0.264382 0.557699 0)
(0.256391 0.561418 0)
(0.248348 0.565022 0)
(0.240254 0.56851 0)
(0.232112 0.571883 0)
(0.223922 0.575139 0)
(0.215687 0.578278 0)
(0.207407 0.581299 0)
(0.199085 0.584201 0)
(0.190723 0.586985 0)
(0.182322 0.589648 0)
(0.173883 0.592192 0)
(0.165409 0.594614 0)
(0.156902 0.596915 0)
(0.148362 0.599095 0)
(0.139792 0.601153 0)
(0.131194 0.603087 0)
(0.122568 0.604899 0)
(0.113918 0.606588 0)
(0.105245 0.608153 0)
(0.0965501 0.609594 0)
(0.0878356 0.61091 0)
(0.0791032 0.612102 0)
(0.0703546 0.613169 0)
(0.0615917 0.614111 0)
(0.0528162 0.614928 0)
(0.04403 0.61562 0)
(0.0352348 0.616186 0)
(0.0264324 0.616626 0)
(0.0176246 0.61694 0)
(0.00881318 0.617129 0)
(0 0.61693 0)
(0 0.616682 0)
(0 0.616453 0)
(0 0.616239 0)
(0 0.616042 0)
(0 0.615862 0)
(0 0.615698 0)
(0 0.615552 0)
(0 0.615424 0)
(0 0.615313 0)
(0 0.615221 0)
(0 0.615147 0)
(0 0.615091 0)
(0 0.615055 0)
(0 0.615038 0)
(0 0.615041 0)
(0 0.615064 0)
(0 0.615107 0)
(0 0.615171 0)
(0 0.615256 0)
(0 0.615362 0)
(0 0.615491 0)
(0 0.615641 0)
(0 0.615814 0)
(0 0.61601 0)
(0 0.616229 0)
(0 0.616472 0)
(0 0.616739 0)
(0 0.617031 0)
(0 0.617348 0)
(0 0.61769 0)
(0 0.618058 0)
(0 0.618453 0)
(0 0.618875 0)
(0 0.619324 0)
(0 0.619801 0)
(0 0.620307 0)
(0 0.620842 0)
(0 0.621406 0)
(0 0.622 0)
(0 0.622626 0)
(0 0.623282 0)
(0 0.62397 0)
(0 0.624691 0)
(0 0.625445 0)
(0 0.626233 0)
(0 0.627056 0)
(0 0.627913 0)
(0 0.628807 0)
(0 0.629737 0)
(0 0.630705 0)
(0 0.631711 0)
(0 0.632755 0)
(0 0.63384 0)
(0 0.634965 0)
(0 0.636131 0)
(0 0.63734 0)
(0 0.638592 0)
(0 0.639889 0)
(0 0.64123 0)
(0 0.642618 0)
(0 0.644052 0)
(0 0.645535 0)
(0 0.647067 0)
(0 0.648649 0)
(0 0.650283 0)
(0 0.651969 0)
(0 0.65371 0)
(0 0.655505 0)
(0 0.657356 0)
(0 0.659266 0)
(0 0.661234 0)
(0 0.663263 0)
(0 0.665353 0)
(0 0.667507 0)
(0 0.669726 0)
(0 0.672011 0)
(0 0.674364 0)
(0 0.676786 0)
(0 0.679281 0)
(0 0.681848 0)
(0 0.684491 0)
(0 0.68721 0)
(0 0.690009 0)
(0 0.692888 0)
(0 0.695851 0)
(0 0.698899 0)
(0 0.702034 0)
(0 0.705259 0)
(0 0.708577 0)
(0 0.711989 0)
(0 0.715498 0)
(0 0.719108 0)
(0 0.72282 0)
(0 0.726637 0)
(0 0.730563 0)
(0 0.734601 0)
(0 0.738753 0)
(0 0.743024 0)
(0 0.747415 0)
(0 0.751932 0)
(0 0.756577 0)
(0 0.761355 0)
(0 0.766269 0)
(0 0.771324 0)
(0 0.776523 0)
(0 0.781871 0)
(0 0.787373 0)
(0 0.793033 0)
(0 0.798857 0)
(0 0.804847 0)
(0 0.811016 0)
(0 0.817356 0)
(0 0.823896 0)
(0 0.830598 0)
(0 0.837552 0)
(0.0120616 0.844597 0)
(0.0241208 0.844339 0)
(0.0361751 0.843908 0)
(0.0482219 0.843305 0)
(0.060259 0.842531 0)
(0.0722838 0.841585 0)
(0.0842938 0.840467 0)
(0.0962866 0.839177 0)
(0.10826 0.837717 0)
(0.120211 0.836085 0)
(0.132138 0.834284 0)
(0.144037 0.832312 0)
(0.155907 0.83017 0)
(0.167746 0.827859 0)
(0.17955 0.825379 0)
(0.191318 0.822731 0)
(0.203047 0.819916 0)
(0.214734 0.816933 0)
(0.226377 0.813783 0)
(0.237975 0.810467 0)
(0.249524 0.806987 0)
(0.261021 0.803341 0)
(0.272466 0.799532 0)
(0.283855 0.79556 0)
(0.295186 0.791426 0)
(0.306458 0.78713 0)
(0.317666 0.782673 0)
(0.32881 0.778058 0)
(0.339887 0.773283 0)
(0.350894 0.768351 0)
(0.36183 0.763262 0)
(0.372692 0.758017 0)
(0.383478 0.752618 0)
(0.394186 0.747065 0)
(0.404813 0.741361 0)
(0.415358 0.735504 0)
(0.425819 0.729498 0)
(0.436192 0.723343 0)
(0.446477 0.717041 0)
(0.45667 0.710593 0)
(0.46677 0.703999 0)
(0.476776 0.697262 0)
(0.486684 0.690383 0)
(0.496492 0.683363 0)
(0.5062 0.676204 0)
(0.515804 0.668906 0)
(0.525303 0.661473 0)
(0.534695 0.653904 0)
(0.543978 0.646202 0)
(0.55315 0.638369 0)
(0.562209 0.630405 0)
(0.571153 0.622313 0)
(0.579982 0.614094 0)
(0.588691 0.605749 0)
(0.597281 0.597281 0)
(0.605749 0.588691 0)
(0.614094 0.579982 0)
(0.622313 0.571153 0)
(0.630405 0.562209 0)
(0.638369 0.55315 0)
(0.646202 0.543978 0)
(0.653904 0.534695 0)
(0.661473 0.525303 0)
(0.668906 0.515804 0)
(0.676204 0.5062 0)
(0.683363 0.496492 0)
(0.690383 0.486684 0)
(0.697262 0.476776 0)
(0.703999 0.46677 0)
(0.710593 0.45667 0)
(0.717041 0.446477 0)
(0.723343 0.436192 0)
(0.729498 0.425819 0)
(0.735504 0.415358 0)
(0.741361 0.404813 0)
(0.747065 0.394186 0)
(0.752618 0.383478 0)
(0.758017 0.372692 0)
(0.763262 0.36183 0)
(0.768351 0.350894 0)
(0.773283 0.339887 0)
(0.778058 0.32881 0)
(0.782673 0.317666 0)
(0.78713 0.306458 0)
(0.791426 0.295186 0)
(0.79556 0.283855 0)
(0.799532 0.272466 0)
(0.803341 0.261021 0)
(0.806987 0.249524 0)
(0.810467 0.237975 0)
(0.813783 0.226377 0)
(0.816933 0.214734 0)
(0.819916 0.203047 0)
(0.822731 0.191318 0)
(0.825379 0.17955 0)
(0.827859 0.167746 0)
(0.83017 0.155907 0)
(0.832312 0.144037 0)
(0.834284 0.132138 0)
(0.836085 0.120211 0)
(0.837717 0.10826 0)
(0.839177 0.0962866 0)
(0.840467 0.0842938 0)
(0.841585 0.0722838 0)
(0.842531 0.060259 0)
(0.843305 0.0482219 0)
(0.843908 0.0361751 0)
(0.844339 0.0241208 0)
(0.844597 0.0120616 0)
(0.837552 0 0)
(0.830598 0 0)
(0.823896 0 0)
(0.817356 0 0)
(0.811016 0 0)
(0.804847 0 0)
(0.798857 0 0)
(0.793033 0 0)
(0.787373 0 0)
(0.781871 0 0)
(0.776523 0 0)
(0.771324 0 0)
(0.766269 0 0)
(0.761355 0 0)
(0.756577 0 0)
(0.751932 0 0)
(0.747415 0 0)
(0.743024 0 0)
(0.738753 0 0)
(0.734601 0 0)
(0.730563 0 0)
(0.726637 0 0)
(0.72282 0 0)
(0.719108 0 0)
(0.715498 0 0)
(0.711989 0 0)
(0.708577 0 0)
(0.705259 0 0)
(0.702034 0 0)
(0.698899 0 0)
(0.695851 0 0)
(0.692888 0 0)
(0.690009 0 0)
(0.68721 0 0)
(0.684491 0 0)
(0.681848 0 0)
(0.679281 0 0)
(0.676786 0 0)
(0.674364 0 0)
(0.672011 0 0)
(0.669726 0 0)
(0.667507 0 0)
(0.665353 0 0)
(0.663263 0 0)
(0.661234 0 0)
(0.659266 0 0)
(0.657356 0 0)
(0.655505 0 0)
(0.65371 0 0)
(0.651969 0 0)
(0.650283 0 0)
(0.648649 0 0)
(0.647067 0 0)
(0.645535 0 0)
(0.644052 0 0)
(0.642618 0 0)
(0.64123 0 0)
(0.639889 0 0)
(0.638592 0 0)
(0.63734 0 0)
(0.636131 0 0)
(0.634965 0 0)
(0.63384 0 0)
(0.632755 0 0)
(0.631711 0 0)
(0.630705 0 0)
(0.629737 0 0)
(0.628807 0 0)
(0.627913 0 0)
(0.627056 0 0)
(0.626233 0 0)
(0.625445 0 0)
(0.624691 0 0)
(0.62397 0 0)
(0.623282 0 0)
(0.622626 0 0)
(0.622 0 0)
(0.621406 0 0)
(0.620842 0 0)
(0.620307 0 0)
(0.619801 0 0)
(0.619324 0 0)
(0.618875 0 0)
(0.618453 0 0)
(0.618058 0 0)
(0.61769 0 0)
(0.617348 0 0)
(0.617031 0 0)
(0.616739 0 0)
(0.616472 0 0)
(0.616229 0 0)
(0.61601 0 0)
(0.615814 0 0)
(0.615641 0 0)
(0.615491 0 0)
(0.615362 0 0)
(0.615256 0 0)
(0.615171 0 0)
(0.615107 0 0)
(0.615064 0 0)
(0.615041 0 0)
(0.615038 0 0)
(0.615055 0 0)
(0.615091 0 0)
(0.615147 0 0)
(0.615221 0 0)
(0.615313 0 0)
(0.615424 0 0)
(0.615552 0 0)
(0.615698 0 0)
(0.615862 0 0)
(0.616042 0 0)
(0.616239 0 0)
(0.616453 0 0)
(0.616682 0 0)
(0.61693 0 0)
(0.617129 0.00881318 0)
(0.61694 0.0176246 0)
(0.616626 0.0264324 0)
(0.616186 0.0352348 0)
(0.61562 0.04403 0)
(0.614928 0.0528162 0)
(0.614111 0.0615917 0)
(0.613169 0.0703546 0)
(0.612102 0.0791032 0)
(0.61091 0.0878356 0)
(0.609594 0.0965501 0)
(0.608153 0.105245 0)
(0.606588 0.113918 0)
(0.604899 0.122568 0)
(0.603087 0.131194 0)
(0.601153 0.139792 0)
(0.599095 0.148362 0)
(0.596915 0.156902 0)
(0.594614 0.165409 0)
(0.592192 0.173883 0)
(0.589648 0.182322 0)
(0.586985 0.190723 0)
(0.584201 0.199085 0)
(0.581299 0.207407 0)
(0.578278 0.215687 0)
(0.575139 0.223922 0)
(0.571883 0.232112 0)
(0.56851 0.240254 0)
(0.565022 0.248348 0)
(0.561418 0.256391 0)
(0.557699 0.264382 0)
(0.553867 0.272318 0)
(0.549922 0.280199 0)
(0.545865 0.288023 0)
(0.541697 0.295789 0)
(0.537418 0.303494 0)
(0.533029 0.311137 0)
(0.528532 0.318716 0)
(0.523927 0.326231 0)
(0.519215 0.333679 0)
(0.514397 0.341059 0)
(0.509475 0.34837 0)
(0.504448 0.355609 0)
(0.499319 0.362776 0)
(0.494088 0.369869 0)
(0.488756 0.376887 0)
(0.483324 0.383828 0)
(0.477794 0.39069 0)
(0.472167 0.397473 0)
(0.466443 0.404175 0)
(0.460624 0.410794 0)
(0.454711 0.41733 0)
(0.448705 0.42378 0)
(0.442608 0.430144 0)
(0.436421 0.436421 0)
(0.430144 0.442608 0)
(0.42378 0.448705 0)
(0.41733 0.454711 0)
(0.410794 0.460624 0)
(0.404175 0.466443 0)
(0.397473 0.472167 0)
(0.39069 0.477794 0)
(0.383828 0.483324 0)
(0.376887 0.488756 0)
(0.369869 0.494088 0)
(0.362776 0.499319 0)
(0.355609 0.504448 0)
(0.34837 0.509475 0)
(0.341059 0.514397 0)
(0.333679 0.519215 0)
(0.326231 0.523927 0)
(0.318716 0.528532 0)
(0.311137 0.533029 0)
(0.303494 0.537418 0)
(0.295789 0.541697 0)
(0.288023 0.545865 0)
(0.280199 0.549922 0)
(0.272318 0.553867 0)
(0.264382 0.557699 0)
(0.256391 0.561418 0)
(0.248348 0.565022 0)
(0.240254 0.56851 0)
(0.232112 0.571883 0)
(0.223922 0.575139 0)
(0.215687 0.578278 0)
(0.207407 0.581299 0)
(0.199085 0.584201 0)
(0.190723 0.586985 0)
(0.182322 0.589648 0)
(0.173883 0.592192 0)
(0.165409 0.594614 0)
(0.156902 0.596915 0)
(0.148362 0.599095 0)
(0.139792 0.601153 0)
(0.131194 0.603087 0)
(0.122568 0.604899 0)
(0.113918 0.606588 0)
(0.105245 0.608153 0)
(0.0965501 0.609594 0)
(0.0878356 0.61091 0)
(0.0791032 0.612102 0)
(0.0703546 0.613169 0)
(0.0615917 0.614111 0)
(0.0528162 0.614928 0)
(0.04403 0.61562 0)
(0.0352348 0.616186 0)
(0.0264324 0.616626 0)
(0.0176246 0.61694 0)
(0.00881318 0.617129 0)
(0 0.61693 0)
(0 0.616682 0)
(0 0.616453 0)
(0 0.616239 0)
(0 0.616042 0)
(0 0.615862 0)
(0 0.615698 0)
(0 0.615552 0)
(0 0.615424 0)
(0 0.615313 0)
(0 0.615221 0)
(0 0.615147 0)
(0 0.615091 0)
(0 0.615055 0)
(0 0.615038 0)
(0 0.615041 0)
(0 0.615064 0)
(0 0.615107 0)
(0 0.615171 0)
(0 0.615256 0)
(0 0.615362 0)
(0 0.615491 0)
(0 0.615641 0)
(0 0.615814 0)
(0 0.61601 0)
(0 0.616229 0)
(0 0.616472 0)
(0 0.616739 0)
(0 0.617031 0)
(0 0.617348 0)
(0 0.61769 0)
(0 0.618058 0)
(0 0.618453 0)
(0 0.618875 0)
(0 0.619324 0)
(0 0.619801 0)
(0 0.620307 0)
(0 0.620842 0)
(0 0.621406 0)
(0 0.622 0)
(0 0.622626 0)
(0 0.623282 0)
(0 0.62397 0)
(0 0.624691 0)
(0 0.625445 0)
(0 0.626233 0)
(0 0.627056 0)
(0 0.627913 0)
(0 0.628807 0)
(0 0.629737 0)
(0 0.630705 0)
(0 0.631711 0)
(0 0.632755 0)
(0 0.63384 0)
(0 0.634965 0)
(0 0.636131 0)
(0 0.63734 0)
(0 0.638592 0)
(0 0.639889 0)
(0 0.64123 0)
(0 0.642618 0)
(0 0.644052 0)
(0 0.645535 0)
(0 0.647067 0)
(0 0.648649 0)
(0 0.650283 0)
(0 0.651969 0)
(0 0.65371 0)
(0 0.655505 0)
(0 0.657356 0)
(0 0.659266 0)
(0 0.661234 0)
(0 0.663263 0)
(0 0.665353 0)
(0 0.667507 0)
(0 0.669726 0)
(0 0.672011 0)
(0 0.674364 0)
(0 0.676786 0)
(0 0.679281 0)
(0 0.681848 0)
(0 0.684491 0)
(0 0.68721 0)
(0 0.690009 0)
(0 0.692888 0)
(0 0.695851 0)
(0 0.698899 0)
(0 0.702034 0)
(0 0.705259 0)
(0 0.708577 0)
(0 0.711989 0)
(0 0.715498 0)
(0 0.719108 0)
(0 0.72282 0)
(0 0.726637 0)
(0 0.730563 0)
(0 0.734601 0)
(0 0.738753 0)
(0 0.743024 0)
(0 0.747415 0)
(0 0.751932 0)
(0 0.756577 0)
(0 0.761355 0)
(0 0.766269 0)
(0 0.771324 0)
(0 0.776523 0)
(0 0.781871 0)
(0 0.787373 0)
(0 0.793033 0)
(0 0.798857 0)
(0 0.804847 0)
(0 0.811016 0)
(0 0.817356 0)
(0 0.823896 0)
(0 0.830598 0)
(0 0.837552 0)
(0.0120616 0.844597 0)
(0.0241208 0.844339 0)
(0.0361751 0.843908 0)
(0.0482219 0.843305 0)
(0.060259 0.842531 0)
(0.0722838 0.841585 0)
(0.0842938 0.840467 0)
(0.0962866 0.839177 0)
(0.10826 0.837717 0)
(0.120211 0.836085 0)
(0.132138 0.834284 0)
(0.144037 0.832312 0)
(0.155907 0.83017 0)
(0.167746 0.827859 0)
(0.17955 0.825379 0)
(0.191318 0.822731 0)
(0.203047 0.819916 0)
(0.214734 0.816933 0)
(0.226377 0.813783 0)
(0.237975 0.810467 0)
(0.249524 0.806987 0)
(0.261021 0.803341 0)
(0.272466 0.799532 0)
(0.283855 0.79556 0)
(0.295186 0.791426 0)
(0.306458 0.78713 0)
(0.317666 0.782673 0)
(0.32881 0.778058 0)
(0.339887 0.773283 0)
(0.350894 0.768351 0)
(0.36183 0.763262 0)
(0.372692 0.758017 0)
(0.383478 0.752618 0)
(0.394186 0.747065 0)
(0.404813 0.741361 0)
(0.415358 0.735504 0)
(0.425819 0.729498 0)
(0.436192 0.723343 0)
(0.446477 0.717041 0)
(0.45667 0.710593 0)
(0.46677 0.703999 0)
(0.476776 0.697262 0)
(0.486684 0.690383 0)
(0.496492 0.683363 0)
(0.5062 0.676204 0)
(0.515804 0.668906 0)
(0.525303 0.661473 0)
(0.534695 0.653904 0)
(0.543978 0.646202 0)
(0.55315 0.638369 0)
(0.562209 0.630405 0)
(0.571153 0.622313 0)
(0.579982 0.614094 0)
(0.588691 0.605749 0)
(0.597281 0.597281 0)
(0.605749 0.588691 0)
(0.614094 0.579982 0)
(0.622313 0.571153 0)
(0.630405 0.562209 0)
(0.638369 0.55315 0)
(0.646202 0.543978 0)
(0.653904 0.534695 0)
(0.661473 0.525303 0)
(0.668906 0.515804 0)
(0.676204 0.5062 0)
(0.683363 0.496492 0)
(0.690383 0.486684 0)
(0.697262 0.476776 0)
(0.703999 0.46677 0)
(0.710593 0.45667 0)
(0.717041 0.446477 0)
(0.723343 0.436192 0)
(0.729498 0.425819 0)
(0.735504 0.415358 0)
(0.741361 0.404813 0)
(0.747065 0.394186 0)
(0.752618 0.383478 0)
(0.758017 0.372692 0)
(0.763262 0.36183 0)
(0.768351 0.350894 0)
(0.773283 0.339887 0)
(0.778058 0.32881 0)
(0.782673 0.317666 0)
(0.78713 0.306458 0)
(0.791426 0.295186 0)
(0.79556 0.283855 0)
(0.799532 0.272466 0)
(0.803341 0.261021 0)
(0.806987 0.249524 0)
(0.810467 0.237975 0)
(0.813783 0.226377 0)
(0.816933 0.214734 0)
(0.819916 0.203047 0)
(0.822731 0.191318 0)
(0.825379 0.17955 0)
(0.827859 0.167746 0)
(0.83017 0.155907 0)
(0.832312 0.144037 0)
(0.834284 0.132138 0)
(0.836085 0.120211 0)
(0.837717 0.10826 0)
(0.839177 0.0962866 0)
(0.840467 0.0842938 0)
(0.841585 0.0722838 0)
(0.842531 0.060259 0)
(0.843305 0.0482219 0)
(0.843908 0.0361751 0)
(0.844339 0.0241208 0)
(0.844597 0.0120616 0)
(0.837467 0.0119598 0)
(0.83721 0.0239172 0)
(0.836784 0.0358697 0)
(0.836186 0.0478148 0)
(0.835418 0.0597503 0)
(0.83448 0.0716735 0)
(0.833371 0.0835821 0)
(0.832093 0.0954737 0)
(0.830644 0.107346 0)
(0.829027 0.119196 0)
(0.82724 0.131022 0)
(0.825285 0.142821 0)
(0.823161 0.154591 0)
(0.82087 0.16633 0)
(0.818411 0.178034 0)
(0.815786 0.189703 0)
(0.812994 0.201332 0)
(0.810036 0.212921 0)
(0.806913 0.224466 0)
(0.803625 0.235966 0)
(0.800174 0.247417 0)
(0.796559 0.258818 0)
(0.792782 0.270166 0)
(0.788844 0.281459 0)
(0.784744 0.292694 0)
(0.780485 0.30387 0)
(0.776066 0.314984 0)
(0.771489 0.326034 0)
(0.766755 0.337017 0)
(0.761864 0.347932 0)
(0.756818 0.358775 0)
(0.751618 0.369546 0)
(0.746264 0.380241 0)
(0.740759 0.390858 0)
(0.735102 0.401396 0)
(0.729295 0.411852 0)
(0.72334 0.422224 0)
(0.717237 0.43251 0)
(0.710988 0.442707 0)
(0.704594 0.452815 0)
(0.698056 0.46283 0)
(0.691376 0.472751 0)
(0.684554 0.482575 0)
(0.677594 0.492301 0)
(0.670495 0.501926 0)
(0.663259 0.511449 0)
(0.655888 0.520868 0)
(0.648384 0.530181 0)
(0.640747 0.539385 0)
(0.63298 0.54848 0)
(0.625083 0.557463 0)
(0.617059 0.566332 0)
(0.608909 0.575085 0)
(0.600635 0.583721 0)
(0.592239 0.592239 0)
(0.583721 0.600635 0)
(0.575085 0.608909 0)
(0.566332 0.617059 0)
(0.557463 0.625083 0)
(0.54848 0.63298 0)
(0.539385 0.640747 0)
(0.530181 0.648384 0)
(0.520868 0.655888 0)
(0.511449 0.663259 0)
(0.501926 0.670495 0)
(0.492301 0.677594 0)
(0.482575 0.684554 0)
(0.472751 0.691376 0)
(0.46283 0.698056 0)
(0.452815 0.704594 0)
(0.442707 0.710988 0)
(0.43251 0.717237 0)
(0.422224 0.72334 0)
(0.411852 0.729295 0)
(0.401396 0.735102 0)
(0.390858 0.740759 0)
(0.380241 0.746264 0)
(0.369546 0.751618 0)
(0.358775 0.756818 0)
(0.347932 0.761864 0)
(0.337017 0.766755 0)
(0.326034 0.771489 0)
(0.314984 0.776066 0)
(0.30387 0.780485 0)
(0.292694 0.784744 0)
(0.281459 0.788844 0)
(0.270166 0.792782 0)
(0.258818 0.796559 0)
(0.247417 0.800174 0)
(0.235966 0.803625 0)
(0.224466 0.806913 0)
(0.212921 0.810036 0)
(0.201332 0.812994 0)
(0.189703 0.815786 0)
(0.178034 0.818411 0)
(0.16633 0.82087 0)
(0.154591 0.823161 0)
(0.142821 0.825285 0)
(0.131022 0.82724 0)
(0.119196 0.829027 0)
(0.107346 0.830644 0)
(0.0954737 0.832093 0)
(0.0835821 0.833371 0)
(0.0716735 0.83448 0)
(0.0597503 0.835418 0)
(0.0478148 0.836186 0)
(0.0358697 0.836784 0)
(0.0239172 0.83721 0)
(0.0119598 0.837467 0)
(0.830514 0.0118605 0)
(0.83026 0.0237186 0)
(0.829836 0.0355719 0)
(0.829244 0.0474179 0)
(0.828482 0.0592542 0)
(0.827551 0.0710785 0)
(0.826452 0.0828882 0)
(0.825184 0.0946811 0)
(0.823748 0.106455 0)
(0.822144 0.118206 0)
(0.820372 0.129934 0)
(0.818433 0.141635 0)
(0.816327 0.153308 0)
(0.814055 0.164949 0)
(0.811616 0.176556 0)
(0.809013 0.188128 0)
(0.806244 0.199661 0)
(0.80331 0.211153 0)
(0.800213 0.222603 0)
(0.796953 0.234007 0)
(0.79353 0.245363 0)
(0.789946 0.256669 0)
(0.7862 0.267923 0)
(0.782294 0.279122 0)
(0.778229 0.290264 0)
(0.774005 0.301347 0)
(0.769623 0.312369 0)
(0.765084 0.323327 0)
(0.760389 0.334219 0)
(0.755539 0.345043 0)
(0.750535 0.355797 0)
(0.745378 0.366477 0)
(0.740068 0.377084 0)
(0.734608 0.387613 0)
(0.728999 0.398063 0)
(0.72324 0.408433 0)
(0.717334 0.418718 0)
(0.711282 0.428919 0)
(0.705085 0.439032 0)
(0.698744 0.449055 0)
(0.69226 0.458987 0)
(0.685636 0.468826 0)
(0.678871 0.478568 0)
(0.671968 0.488213 0)
(0.664928 0.497759 0)
(0.657753 0.507203 0)
(0.650443 0.516544 0)
(0.643001 0.525779 0)
(0.635427 0.534907 0)
(0.627724 0.543926 0)
(0.619893 0.552834 0)
(0.611936 0.56163 0)
(0.603854 0.570311 0)
(0.595648 0.578875 0)
(0.587322 0.587322 0)
(0.578875 0.595648 0)
(0.570311 0.603854 0)
(0.56163 0.611936 0)
(0.552834 0.619893 0)
(0.543926 0.627724 0)
(0.534907 0.635427 0)
(0.525779 0.643001 0)
(0.516544 0.650443 0)
(0.507203 0.657753 0)
(0.497759 0.664928 0)
(0.488213 0.671968 0)
(0.478568 0.678871 0)
(0.468826 0.685636 0)
(0.458987 0.69226 0)
(0.449055 0.698744 0)
(0.439032 0.705085 0)
(0.428919 0.711282 0)
(0.418718 0.717334 0)
(0.408433 0.72324 0)
(0.398063 0.728999 0)
(0.387613 0.734608 0)
(0.377084 0.740068 0)
(0.366477 0.745378 0)
(0.355797 0.750535 0)
(0.345043 0.755539 0)
(0.334219 0.760389 0)
(0.323327 0.765084 0)
(0.312369 0.769623 0)
(0.301347 0.774005 0)
(0.290264 0.778229 0)
(0.279122 0.782294 0)
(0.267923 0.7862 0)
(0.256669 0.789946 0)
(0.245363 0.79353 0)
(0.234007 0.796953 0)
(0.222603 0.800213 0)
(0.211153 0.80331 0)
(0.199661 0.806244 0)
(0.188128 0.809013 0)
(0.176556 0.811616 0)
(0.164949 0.814055 0)
(0.153308 0.816327 0)
(0.141635 0.818433 0)
(0.129934 0.820372 0)
(0.118206 0.822144 0)
(0.106455 0.823748 0)
(0.0946811 0.825184 0)
(0.0828882 0.826452 0)
(0.0710785 0.827551 0)
(0.0592542 0.828482 0)
(0.0474179 0.829244 0)
(0.0355719 0.829836 0)
(0.0237186 0.83026 0)
(0.0118605 0.830514 0)
(0.823812 0.0117648 0)
(0.82356 0.0235272 0)
(0.82314 0.0352848 0)
(0.822552 0.0470352 0)
(0.821797 0.0587761 0)
(0.820874 0.0705049 0)
(0.819783 0.0822194 0)
(0.818526 0.0939171 0)
(0.817101 0.105596 0)
(0.81551 0.117253 0)
(0.813752 0.128886 0)
(0.811829 0.140493 0)
(0.80974 0.152071 0)
(0.807486 0.163618 0)
(0.805067 0.175132 0)
(0.802485 0.18661 0)
(0.799738 0.19805 0)
(0.796828 0.209449 0)
(0.793756 0.220806 0)
(0.790522 0.232118 0)
(0.787127 0.243383 0)
(0.783572 0.254598 0)
(0.779856 0.265761 0)
(0.775982 0.27687 0)
(0.771949 0.287922 0)
(0.767759 0.298916 0)
(0.763412 0.309849 0)
(0.75891 0.320718 0)
(0.754253 0.331522 0)
(0.749442 0.342259 0)
(0.744478 0.352926 0)
(0.739363 0.36352 0)
(0.734097 0.374041 0)
(0.728681 0.384485 0)
(0.723116 0.394851 0)
(0.717404 0.405137 0)
(0.711546 0.41534 0)
(0.705543 0.425458 0)
(0.699395 0.435489 0)
(0.693105 0.445432 0)
(0.686674 0.455284 0)
(0.680103 0.465043 0)
(0.673393 0.474707 0)
(0.666546 0.484274 0)
(0.659563 0.493742 0)
(0.652445 0.50311 0)
(0.645194 0.512376 0)
(0.637812 0.521536 0)
(0.6303 0.530591 0)
(0.622659 0.539537 0)
(0.614891 0.548373 0)
(0.606998 0.557098 0)
(0.598981 0.565709 0)
(0.590842 0.574204 0)
(0.582582 0.582582 0)
(0.574204 0.590842 0)
(0.565709 0.598981 0)
(0.557098 0.606998 0)
(0.548373 0.614891 0)
(0.539537 0.622659 0)
(0.530591 0.6303 0)
(0.521536 0.637812 0)
(0.512376 0.645194 0)
(0.50311 0.652445 0)
(0.493742 0.659563 0)
(0.484274 0.666546 0)
(0.474707 0.673393 0)
(0.465043 0.680103 0)
(0.455284 0.686674 0)
(0.445432 0.693105 0)
(0.435489 0.699395 0)
(0.425458 0.705543 0)
(0.41534 0.711546 0)
(0.405137 0.717404 0)
(0.394851 0.723116 0)
(0.384485 0.728681 0)
(0.374041 0.734097 0)
(0.36352 0.739363 0)
(0.352926 0.744478 0)
(0.342259 0.749442 0)
(0.331522 0.754253 0)
(0.320718 0.75891 0)
(0.309849 0.763412 0)
(0.298916 0.767759 0)
(0.287922 0.771949 0)
(0.27687 0.775982 0)
(0.265761 0.779856 0)
(0.254598 0.783572 0)
(0.243383 0.787127 0)
(0.232118 0.790522 0)
(0.220806 0.793756 0)
(0.209449 0.796828 0)
(0.19805 0.799738 0)
(0.18661 0.802485 0)
(0.175132 0.805067 0)
(0.163618 0.807486 0)
(0.152071 0.80974 0)
(0.140493 0.811829 0)
(0.128886 0.813752 0)
(0.117253 0.81551 0)
(0.105596 0.817101 0)
(0.0939171 0.818526 0)
(0.0822194 0.819783 0)
(0.0705049 0.820874 0)
(0.0587761 0.821797 0)
(0.0470352 0.822552 0)
(0.0352848 0.82314 0)
(0.0235272 0.82356 0)
(0.0117648 0.823812 0)
(0.817272 0.0116714 0)
(0.817022 0.0233404 0)
(0.816606 0.0350047 0)
(0.816023 0.0466619 0)
(0.815273 0.0583095 0)
(0.814357 0.0699452 0)
(0.813276 0.0815667 0)
(0.812028 0.0931715 0)
(0.810615 0.104757 0)
(0.809036 0.116322 0)
(0.807293 0.127863 0)
(0.805385 0.139377 0)
(0.803312 0.150864 0)
(0.801076 0.162319 0)
(0.798677 0.173741 0)
(0.796114 0.185128 0)
(0.793389 0.196478 0)
(0.790503 0.207787 0)
(0.787455 0.219054 0)
(0.784247 0.230276 0)
(0.780879 0.241451 0)
(0.777351 0.252577 0)
(0.773665 0.263651 0)
(0.769822 0.274672 0)
(0.765821 0.285637 0)
(0.761664 0.296543 0)
(0.757352 0.307389 0)
(0.752886 0.318172 0)
(0.748266 0.32889 0)
(0.743493 0.339542 0)
(0.738569 0.350124 0)
(0.733494 0.360635 0)
(0.728269 0.371072 0)
(0.722896 0.381433 0)
(0.717376 0.391717 0)
(0.711709 0.401921 0)
(0.705897 0.412043 0)
(0.699942 0.42208 0)
(0.693843 0.432032 0)
(0.687603 0.441896 0)
(0.681223 0.451669 0)
(0.674704 0.461351 0)
(0.668047 0.470938 0)
(0.661255 0.48043 0)
(0.654327 0.489823 0)
(0.647266 0.499116 0)
(0.640073 0.508308 0)
(0.632749 0.517396 0)
(0.625296 0.526379 0)
(0.617716 0.535254 0)
(0.61001 0.54402 0)
(0.60218 0.552675 0)
(0.594226 0.561218 0)
(0.586152 0.569646 0)
(0.577958 0.577958 0)
(0.569646 0.586152 0)
(0.561218 0.594226 0)
(0.552675 0.60218 0)
(0.54402 0.61001 0)
(0.535254 0.617716 0)
(0.526379 0.625296 0)
(0.517396 0.632749 0)
(0.508308 0.640073 0)
(0.499116 0.647266 0)
(0.489823 0.654327 0)
(0.48043 0.661255 0)
(0.470938 0.668047 0)
(0.461351 0.674704 0)
(0.451669 0.681223 0)
(0.441896 0.687603 0)
(0.432032 0.693843 0)
(0.42208 0.699942 0)
(0.412043 0.705897 0)
(0.401921 0.711709 0)
(0.391717 0.717376 0)
(0.381433 0.722896 0)
(0.371072 0.728269 0)
(0.360635 0.733494 0)
(0.350124 0.738569 0)
(0.339542 0.743493 0)
(0.32889 0.748266 0)
(0.318172 0.752886 0)
(0.307389 0.757352 0)
(0.296543 0.761664 0)
(0.285637 0.765821 0)
(0.274672 0.769822 0)
(0.263651 0.773665 0)
(0.252577 0.777351 0)
(0.241451 0.780879 0)
(0.230276 0.784247 0)
(0.219054 0.787455 0)
(0.207787 0.790503 0)
(0.196478 0.793389 0)
(0.185128 0.796114 0)
(0.173741 0.798677 0)
(0.162319 0.801076 0)
(0.150864 0.803312 0)
(0.139377 0.805385 0)
(0.127863 0.807293 0)
(0.116322 0.809036 0)
(0.104757 0.810615 0)
(0.0931715 0.812028 0)
(0.0815667 0.813276 0)
(0.0699452 0.814357 0)
(0.0583095 0.815273 0)
(0.0466619 0.816023 0)
(0.0350047 0.816606 0)
(0.0233404 0.817022 0)
(0.0116714 0.817272 0)
(0.810933 0.0115809 0)
(0.810685 0.0231594 0)
(0.810272 0.0347332 0)
(0.809693 0.0462999 0)
(0.80895 0.0578572 0)
(0.808041 0.0694027 0)
(0.806968 0.080934 0)
(0.80573 0.0924489 0)
(0.804327 0.103945 0)
(0.802761 0.11542 0)
(0.801031 0.126871 0)
(0.799138 0.138296 0)
(0.797081 0.149693 0)
(0.794863 0.16106 0)
(0.792482 0.172394 0)
(0.789939 0.183693 0)
(0.787236 0.194954 0)
(0.784372 0.206175 0)
(0.781348 0.217355 0)
(0.778164 0.22849 0)
(0.774822 0.239578 0)
(0.771322 0.250618 0)
(0.767665 0.261606 0)
(0.763851 0.272541 0)
(0.759881 0.283421 0)
(0.755757 0.294243 0)
(0.751478 0.305005 0)
(0.747046 0.315704 0)
(0.742462 0.32634 0)
(0.737726 0.336908 0)
(0.73284 0.347408 0)
(0.727805 0.357837 0)
(0.722621 0.368194 0)
(0.717289 0.378475 0)
(0.711812 0.388679 0)
(0.706189 0.398803 0)
(0.700422 0.408847 0)
(0.694513 0.418807 0)
(0.688462 0.428681 0)
(0.68227 0.438468 0)
(0.675939 0.448166 0)
(0.669471 0.457773 0)
(0.662866 0.467286 0)
(0.656126 0.476703 0)
(0.649252 0.486024 0)
(0.642245 0.495245 0)
(0.635108 0.504366 0)
(0.627841 0.513383 0)
(0.620446 0.522296 0)
(0.612925 0.531103 0)
(0.605279 0.539801 0)
(0.597509 0.548389 0)
(0.589617 0.556865 0)
(0.581605 0.565228 0)
(0.573475 0.573475 0)
(0.565228 0.581605 0)
(0.556865 0.589617 0)
(0.548389 0.597509 0)
(0.539801 0.605279 0)
(0.531103 0.612925 0)
(0.522296 0.620446 0)
(0.513383 0.627841 0)
(0.504366 0.635108 0)
(0.495245 0.642245 0)
(0.486024 0.649252 0)
(0.476703 0.656126 0)
(0.467286 0.662866 0)
(0.457773 0.669471 0)
(0.448166 0.675939 0)
(0.438468 0.68227 0)
(0.428681 0.688462 0)
(0.418807 0.694513 0)
(0.408847 0.700422 0)
(0.398803 0.706189 0)
(0.388679 0.711812 0)
(0.378475 0.717289 0)
(0.368194 0.722621 0)
(0.357837 0.727805 0)
(0.347408 0.73284 0)
(0.336908 0.737726 0)
(0.32634 0.742462 0)
(0.315704 0.747046 0)
(0.305005 0.751478 0)
(0.294243 0.755757 0)
(0.283421 0.759881 0)
(0.272541 0.763851 0)
(0.261606 0.767665 0)
(0.250618 0.771322 0)
(0.239578 0.774822 0)
(0.22849 0.778164 0)
(0.217355 0.781348 0)
(0.206175 0.784372 0)
(0.194954 0.787236 0)
(0.183693 0.789939 0)
(0.172394 0.792482 0)
(0.16106 0.794863 0)
(0.149693 0.797081 0)
(0.138296 0.799138 0)
(0.126871 0.801031 0)
(0.11542 0.802761 0)
(0.103945 0.804327 0)
(0.0924489 0.80573 0)
(0.080934 0.806968 0)
(0.0694027 0.808041 0)
(0.0578572 0.80895 0)
(0.0462999 0.809693 0)
(0.0347332 0.810272 0)
(0.0231594 0.810685 0)
(0.0115809 0.810933 0)
(0.804765 0.0114928 0)
(0.804519 0.0229833 0)
(0.804109 0.034469 0)
(0.803535 0.0459478 0)
(0.802797 0.0574172 0)
(0.801895 0.0688748 0)
(0.80083 0.0803184 0)
(0.799601 0.0917457 0)
(0.79821 0.103154 0)
(0.796655 0.114542 0)
(0.794938 0.125906 0)
(0.793059 0.137244 0)
(0.791019 0.148555 0)
(0.788817 0.159835 0)
(0.786454 0.171083 0)
(0.783931 0.182295 0)
(0.781248 0.193471 0)
(0.778406 0.204607 0)
(0.775405 0.215701 0)
(0.772245 0.226752 0)
(0.768929 0.237756 0)
(0.765455 0.248712 0)
(0.761826 0.259616 0)