/*--------------------------------*- C++ -*----------------------------------*\
| =========                 |                                                 |
| \\      /  F ield         | OpenFOAM: The Open Source CFD Toolbox           |
|  \\    /   O peration     | Version:  2312                                  |
|   \\  /    A nd           | Website:  www.openfoam.com                      |
|    \\/     M anipulation  |                                                 |
\*---------------------------------------------------------------------------*/
FoamFile
{
    version     2.0;
    format      ascii;
    arch        "LSB;label=32;scalar=64";
    class       volSymmTensorField;
    location    "30";
    object      sigma;
}
// * * * * * * * * * * * * * * * * * * * * * * * * * * * * * * * * * * * * * //

dimensions      [1 -1 -2 0 0 0 0];

internalField   nonuniform List<symmTensor> 
12870
(
(-2.93976e+07 -520164 3.00589e-12 4.34497e+07 -1.18667e-09 -2.44885e+06)
(-2.93679e+07 -1.56007e+06 -7.88578e-10 4.342e+07 5.76573e-10 -2.44885e+06)
(-2.93085e+07 -2.5987e+06 1.13054e-09 4.33606e+07 1.22779e-09 -2.44885e+06)
(-2.92195e+07 -3.63521e+06 3.23723e-11 4.32716e+07 -5.92453e-10 -2.44885e+06)
(-2.91009e+07 -4.66876e+06 -4.29416e-10 4.3153e+07 5.66925e-10 -2.44885e+06)
(-2.89529e+07 -5.6985e+06 1.17547e-09 4.30049e+07 9.25115e-11 -2.44885e+06)
(-2.87755e+07 -6.72359e+06 -3.35442e-10 4.28275e+07 -6.27121e-10 -2.44885e+06)
(-2.85689e+07 -7.7432e+06 7.24484e-10 4.26209e+07 6.7464e-10 -2.44885e+06)
(-2.83332e+07 -8.75649e+06 -1.43683e-10 4.23853e+07 1.17793e-09 -2.44885e+06)
(-2.80688e+07 -9.76264e+06 6.99507e-10 4.21208e+07 6.94313e-10 -2.44885e+06)
(-2.77757e+07 -1.07608e+07 8.66782e-10 4.18278e+07 -4.69115e-10 -2.44885e+06)
(-2.74542e+07 -1.17502e+07 7.72148e-10 4.15063e+07 -2.27773e-09 -2.44885e+06)
(-2.71046e+07 -1.27301e+07 -1.53819e-09 4.11567e+07 -2.77521e-10 -2.44885e+06)
(-2.67272e+07 -1.36995e+07 -4.0364e-10 4.07792e+07 -7.8792e-11 -2.44885e+06)
(-2.63222e+07 -1.46578e+07 -6.37492e-10 4.03743e+07 -7.40199e-10 -2.44885e+06)
(-2.589e+07 -1.56041e+07 -1.16389e-09 3.99421e+07 1.5626e-09 -2.44885e+06)
(-2.5431e+07 -1.65377e+07 -1.41168e-10 3.94831e+07 5.76298e-10 -2.44885e+06)
(-2.49455e+07 -1.74578e+07 3.82592e-10 3.89976e+07 9.76508e-11 -2.44885e+06)
(-2.4434e+07 -1.83637e+07 5.33449e-10 3.8486e+07 -4.70356e-10 -2.44885e+06)
(-2.38967e+07 -1.92545e+07 1.6572e-10 3.79488e+07 -5.69724e-10 -2.44885e+06)
(-2.33343e+07 -2.01297e+07 0 3.73864e+07 0 -2.44885e+06)
(-2.27471e+07 -2.09885e+07 -5.53103e-10 3.67992e+07 4.47078e-10 -2.44885e+06)
(-2.21356e+07 -2.18301e+07 -3.74747e-10 3.61877e+07 1.12593e-09 -2.44885e+06)
(-2.15003e+07 -2.2654e+07 5.60482e-10 3.55524e+07 -4.32902e-10 -2.44885e+06)
(-2.08418e+07 -2.34593e+07 4.09447e-11 3.48938e+07 -1.24824e-09 -2.44885e+06)
(-2.01605e+07 -2.42456e+07 3.20419e-10 3.42126e+07 1.39205e-09 -2.44885e+06)
(-1.94571e+07 -2.5012e+07 1.15702e-09 3.35091e+07 -8.17002e-10 -2.44885e+06)
(-1.8732e+07 -2.57581e+07 -2.60334e-10 3.27841e+07 -1.39227e-09 -2.44885e+06)
(-1.7986e+07 -2.64831e+07 -3.72647e-10 3.2038e+07 -1.60627e-10 -2.44885e+06)
(-1.72195e+07 -2.71865e+07 -1.55128e-09 3.12716e+07 6.0524e-10 -2.44885e+06)
(-1.64333e+07 -2.78678e+07 -2.95226e-10 3.04854e+07 2.48032e-09 -2.44885e+06)
(-1.56279e+07 -2.85264e+07 5.1104e-10 2.968e+07 -1.071e-09 -2.44885e+06)
(-1.48041e+07 -2.91616e+07 -8.01737e-11 2.88562e+07 -7.03645e-10 -2.44885e+06)
(-1.39624e+07 -2.97731e+07 -6.26092e-10 2.80145e+07 3.43697e-10 -2.44885e+06)
(-1.31037e+07 -3.03603e+07 6.2612e-10 2.71558e+07 -3.37308e-10 -2.44885e+06)
(-1.22285e+07 -3.09228e+07 -5.47446e-11 2.62806e+07 -7.09087e-10 -2.44885e+06)
(-1.13376e+07 -3.146e+07 5.86142e-10 2.53897e+07 -1.03181e-09 -2.44885e+06)
(-1.04318e+07 -3.19716e+07 -6.89471e-11 2.44838e+07 -1.42072e-09 -2.44885e+06)
(-9.51166e+06 -3.2457e+07 -1.96205e-09 2.35637e+07 1.89401e-10 -2.44885e+06)
(-8.57807e+06 -3.29161e+07 -1.93621e-09 2.26301e+07 1.58348e-09 -2.44885e+06)
(-7.63175e+06 -3.33482e+07 6.52129e-10 2.16838e+07 4.25708e-10 -2.44885e+06)
(-6.67348e+06 -3.37532e+07 9.06941e-12 2.07255e+07 6.10693e-12 -2.44885e+06)
(-5.70404e+06 -3.41306e+07 -3.25818e-11 1.97561e+07 1.42202e-09 -2.44885e+06)
(-4.72421e+06 -3.44802e+07 6.86184e-10 1.87763e+07 -9.68166e-10 -2.44885e+06)
(-3.7348e+06 -3.48017e+07 -3.08982e-10 1.77869e+07 -2.27877e-10 -2.44885e+06)
(-2.73661e+06 -3.50948e+07 -9.34526e-11 1.67887e+07 1.41932e-09 -2.44885e+06)
(-1.73046e+06 -3.53593e+07 0 1.57825e+07 0 -2.44885e+06)
(-717166 -3.55949e+07 1.04779e-09 1.47692e+07 -6.79653e-10 -2.44885e+06)
(302442 -3.58015e+07 1.51542e-09 1.37496e+07 -1.82651e-09 -2.44885e+06)
(1.32753e+06 -3.59789e+07 -1.25924e-10 1.27245e+07 -1.66811e-09 -2.44885e+06)
(2.35727e+06 -3.6127e+07 -8.89679e-10 1.16948e+07 -7.82102e-10 -2.44885e+06)
(3.39082e+06 -3.62456e+07 -2.06653e-09 1.06612e+07 5.30728e-10 -2.44885e+06)
(4.42733e+06 -3.63346e+07 -5.2762e-10 9.62473e+06 1.13012e-09 -2.44885e+06)
(5.46596e+06 -3.6394e+07 -5.66297e-10 8.5861e+06 -5.42542e-10 -2.44885e+06)
(6.50587e+06 -3.64237e+07 -1.11428e-09 7.5462e+06 5.6786e-10 -2.44885e+06)
(7.5462e+06 -3.64237e+07 1.5256e-09 6.50587e+06 7.0239e-10 -2.44885e+06)
(8.5861e+06 -3.6394e+07 7.56402e-12 5.46597e+06 7.89521e-12 -2.44885e+06)
(9.62473e+06 -3.63346e+07 8.57335e-10 4.42733e+06 -8.20615e-10 -2.44885e+06)
(1.06612e+07 -3.62456e+07 -7.80056e-10 3.39082e+06 -8.62204e-10 -2.44885e+06)
(1.16948e+07 -3.6127e+07 -3.80674e-10 2.35727e+06 1.36428e-09 -2.44885e+06)
(1.27245e+07 -3.59789e+07 -6.98735e-10 1.32753e+06 9.5478e-11 -2.44885e+06)
(1.37496e+07 -3.58015e+07 1.15142e-09 302442 -4.70657e-10 -2.44885e+06)
(1.47692e+07 -3.55949e+07 -2.65854e-10 -717166 -1.2755e-09 -2.44885e+06)
(1.57825e+07 -3.53593e+07 -9.23515e-10 -1.73046e+06 1.70814e-09 -2.44885e+06)
(1.67887e+07 -3.50948e+07 2.42188e-10 -2.73661e+06 3.18755e-10 -2.44885e+06)
(1.77869e+07 -3.48017e+07 -3.24487e-12 -3.7348e+06 -4.39977e-12 -2.44885e+06)
(1.87763e+07 -3.44802e+07 7.13888e-10 -4.72421e+06 -2.19965e-11 -2.44885e+06)
(1.97561e+07 -3.41306e+07 2.60619e-10 -5.70404e+06 -6.64979e-10 -2.44885e+06)
(2.07255e+07 -3.37532e+07 1.47494e-09 -6.67348e+06 -9.96455e-10 -2.44885e+06)
(2.16838e+07 -3.33482e+07 -1.84808e-09 -7.63175e+06 -6.60168e-10 -2.44885e+06)
(2.26301e+07 -3.29161e+07 -8.00507e-10 -8.57807e+06 9.54244e-10 -2.44885e+06)
(2.35637e+07 -3.2457e+07 1.01465e-09 -9.51166e+06 -6.15367e-10 -2.44885e+06)
(2.44838e+07 -3.19716e+07 -6.14788e-10 -1.04318e+07 1.28939e-09 -2.44885e+06)
(2.53897e+07 -3.146e+07 -5.18627e-10 -1.13376e+07 2.8833e-10 -2.44885e+06)
(2.62806e+07 -3.09228e+07 1.03742e-09 -1.22285e+07 -5.76128e-10 -2.44885e+06)
(2.71558e+07 -3.03603e+07 3.37308e-10 -1.31037e+07 -6.2612e-10 -2.44885e+06)
(2.80145e+07 -2.97731e+07 -1.81769e-10 -1.39624e+07 -3.50532e-10 -2.44885e+06)
(2.88562e+07 -2.91616e+07 -5.29347e-10 -1.48041e+07 2.68029e-10 -2.44885e+06)
(2.968e+07 -2.85264e+07 5.12678e-10 -1.56279e+07 1.06181e-09 -2.44885e+06)
(3.04854e+07 -2.78678e+07 2.30649e-12 -1.64333e+07 4.95654e-12 -2.44885e+06)
(3.12716e+07 -2.71865e+07 1.23991e-09 -1.72195e+07 -1.34878e-10 -2.44885e+06)
(3.2038e+07 -2.64831e+07 -1.39368e-09 -1.7986e+07 -2.35406e-10 -2.44885e+06)
(3.27841e+07 -2.57581e+07 4.42856e-10 -1.8732e+07 1.06915e-09 -2.44885e+06)
(3.35091e+07 -2.5012e+07 1.22348e-09 -1.94571e+07 -1.7406e-09 -2.44885e+06)
(3.42126e+07 -2.42456e+07 -1.1108e-09 -2.01605e+07 4.17515e-10 -2.44885e+06)
(3.48938e+07 -2.34593e+07 -5.5645e-10 -2.08418e+07 2.05941e-10 -2.44885e+06)
(3.55524e+07 -2.2654e+07 -9.90435e-10 -2.15003e+07 7.63619e-10 -2.44885e+06)
(3.61877e+07 -2.18301e+07 1.80928e-09 -2.21356e+07 -2.00437e-10 -2.44885e+06)
(3.67992e+07 -2.09885e+07 6.60883e-12 -2.27471e+07 2.08451e-11 -2.44885e+06)
(3.73864e+07 -2.01297e+07 -1.02696e-09 -2.33343e+07 7.04798e-10 -2.44885e+06)
(3.79488e+07 -1.92545e+07 -1.05531e-10 -2.38967e+07 -3.69135e-10 -2.44885e+06)
(3.8486e+07 -1.83637e+07 2.03353e-10 -2.4434e+07 7.51763e-10 -2.44885e+06)
(3.89976e+07 -1.74578e+07 2.2996e-09 -2.49455e+07 -5.86938e-10 -2.44885e+06)
(3.94831e+07 -1.65377e+07 -1.3344e-09 -2.5431e+07 -4.74927e-10 -2.44885e+06)
(3.99421e+07 -1.56041e+07 -2.31782e-09 -2.589e+07 5.10364e-10 -2.44885e+06)
(4.03743e+07 -1.46578e+07 1.48489e-09 -2.63222e+07 1.29639e-09 -2.44885e+06)
(4.07792e+07 -1.36995e+07 5.0826e-10 -2.67272e+07 -4.93169e-10 -2.44885e+06)
(4.11567e+07 -1.27301e+07 -1.16781e-09 -2.71046e+07 2.10695e-10 -2.44885e+06)
(4.15063e+07 -1.17502e+07 6.48559e-10 -2.74542e+07 2.84456e-10 -2.44885e+06)
(4.18278e+07 -1.07608e+07 2.28771e-09 -2.77757e+07 -7.4495e-10 -2.44885e+06)
(4.21208e+07 -9.76264e+06 -5.86031e-10 -2.80688e+07 9.37861e-11 -2.44885e+06)
(4.23853e+07 -8.75649e+06 -1.8157e-09 -2.83332e+07 -1.84568e-10 -2.44885e+06)
(4.26209e+07 -7.7432e+06 0 -2.85689e+07 0 -2.44885e+06)
(4.28275e+07 -6.72359e+06 5.90523e-10 -2.87755e+07 -5.77154e-11 -2.44885e+06)
(4.30049e+07 -5.6985e+06 1.77429e-09 -2.89529e+07 -1.42382e-10 -2.44885e+06)
(4.3153e+07 -4.66876e+06 -6.4194e-10 -2.91009e+07 -7.36345e-10 -2.44885e+06)
(4.32716e+07 -3.63521e+06 -1.166e-09 -2.92195e+07 4.42729e-10 -2.44885e+06)
(4.33606e+07 -2.5987e+06 1.77876e-09 -2.93085e+07 -6.62637e-11 -2.44885e+06)
(4.342e+07 -1.56007e+06 -1.66802e-11 -2.93679e+07 -7.78602e-10 -2.44885e+06)
(4.34497e+07 -520164 -1.18667e-09 -2.93976e+07 3.00589e-12 -2.44885e+06)
(-2.87546e+07 -508997 -3.91614e-10 4.25288e+07 -2.79617e-12 -2.37472e+06)
(-2.87255e+07 -1.52658e+06 -7.56568e-10 4.24997e+07 -1.16271e-09 -2.37472e+06)
(-2.86674e+07 -2.54291e+06 -2.88849e-13 4.24416e+07 -1.03125e-14 -2.37472e+06)
(-2.85803e+07 -3.55717e+06 -8.85303e-11 4.23545e+07 1.71707e-09 -2.37472e+06)
(-2.84642e+07 -4.56853e+06 -7.14945e-10 4.22385e+07 -1.19461e-09 -2.37472e+06)
(-2.83194e+07 -5.57616e+06 3.95385e-10 4.20936e+07 3.11175e-11 -2.37472e+06)
(-2.81458e+07 -6.57924e+06 -1.21544e-11 4.192e+07 -1.13141e-12 -2.37472e+06)
(-2.79436e+07 -7.57696e+06 8.5461e-12 4.17178e+07 9.18808e-13 -2.37472e+06)
(-2.7713e+07 -8.5685e+06 -5.37999e-10 4.14873e+07 1.08911e-09 -2.37472e+06)
(-2.74542e+07 -9.55305e+06 4.60992e-10 4.12285e+07 -5.15507e-10 -2.37472e+06)
(-2.71674e+07 -1.05298e+07 -7.14208e-12 4.09417e+07 -1.07898e-12 -2.37472e+06)
(-2.68529e+07 -1.1498e+07 9.73316e-10 4.06271e+07 1.32316e-09 -2.37472e+06)
(-2.65108e+07 -1.24568e+07 -9.65293e-10 4.0285e+07 9.90582e-10 -2.37472e+06)
(-2.61414e+07 -1.34054e+07 -1.66396e-10 3.99157e+07 -1.20035e-09 -2.37472e+06)
(-2.57452e+07 -1.43431e+07 -1.13239e-09 3.95194e+07 -2.37881e-10 -2.37472e+06)
(-2.53223e+07 -1.52691e+07 -1.2649e-10 3.90965e+07 5.58985e-10 -2.37472e+06)
(-2.48731e+07 -1.61826e+07 2.67583e-10 3.86473e+07 -1.11456e-09 -2.37472e+06)
(-2.4398e+07 -1.7083e+07 5.2025e-10 3.81723e+07 -4.58704e-10 -2.37472e+06)
(-2.38975e+07 -1.79694e+07 -3.81524e-10 3.76717e+07 -1.03203e-10 -2.37472e+06)
(-2.33718e+07 -1.88412e+07 -7.53078e-10 3.7146e+07 -2.15295e-10 -2.37472e+06)
(-2.28214e+07 -1.96976e+07 -1.62864e-10 3.65956e+07 5.49496e-10 -2.37472e+06)
(-2.22468e+07 -2.05379e+07 -9.189e-10 3.6021e+07 3.099e-10 -2.37472e+06)
(-2.16484e+07 -2.13615e+07 3.71583e-10 3.54227e+07 1.23675e-10 -2.37472e+06)
(-2.10268e+07 -2.21676e+07 3.66369e-10 3.4801e+07 1.27779e-10 -2.37472e+06)
(-2.03824e+07 -2.29557e+07 2.17397e-10 3.41566e+07 -1.7509e-09 -2.37472e+06)
(-1.97158e+07 -2.3725e+07 -1.56265e-10 3.349e+07 -6.72891e-10 -2.37472e+06)
(-1.90274e+07 -2.4475e+07 -7.11736e-11 3.28017e+07 1.20521e-09 -2.37472e+06)
(-1.83179e+07 -2.52051e+07 -1.65747e-09 3.20922e+07 -6.6208e-11 -2.37472e+06)
(-1.75879e+07 -2.59145e+07 -5.85602e-10 3.13621e+07 3.71672e-10 -2.37472e+06)
(-1.68379e+07 -2.66029e+07 2.41835e-10 3.06121e+07 -5.1966e-10 -2.37472e+06)
(-1.60686e+07 -2.72695e+07 4.68951e-10 2.98428e+07 8.50354e-10 -2.37472e+06)
(-1.52805e+07 -2.79139e+07 4.4902e-10 2.90547e+07 8.53226e-10 -2.37472e+06)
(-1.44743e+07 -2.85356e+07 7.94465e-12 2.82486e+07 3.97681e-12 -2.37472e+06)
(-1.36508e+07 -2.91339e+07 2.60014e-10 2.7425e+07 -5.10759e-10 -2.37472e+06)
(-1.28104e+07 -2.97085e+07 2.74854e-10 2.65847e+07 -5.02928e-10 -2.37472e+06)
(-1.1954e+07 -3.02589e+07 -1.45233e-12 2.57283e+07 -8.06549e-13 -2.37472e+06)
(-1.10823e+07 -3.07846e+07 2.87663e-10 2.48565e+07 -4.95702e-10 -2.37472e+06)
(-1.01959e+07 -3.12852e+07 -1.24775e-09 2.39701e+07 5.92486e-10 -2.37472e+06)
(-9.29553e+06 -3.17602e+07 -1.25891e-09 2.30698e+07 5.72872e-10 -2.37472e+06)
(-8.38198e+06 -3.22094e+07 6.14448e-10 2.21562e+07 -9.67631e-10 -2.37472e+06)
(-7.45598e+06 -3.26323e+07 1.93668e-09 2.12302e+07 -1.04591e-10 -2.37472e+06)
(-6.51828e+06 -3.30286e+07 0 2.02925e+07 0 -2.37472e+06)
(-5.56965e+06 -3.33979e+07 -1.19489e-11 1.93439e+07 1.38713e-09 -2.37472e+06)
(-4.61086e+06 -3.374e+07 -3.39982e-10 1.83851e+07 4.61452e-10 -2.37472e+06)
(-3.64269e+06 -3.40546e+07 6.8325e-10 1.74169e+07 -9.20345e-10 -2.37472e+06)
(-2.66593e+06 -3.43414e+07 -6.58005e-10 1.64402e+07 2.19831e-10 -2.37472e+06)
(-1.68138e+06 -3.46002e+07 2.57392e-10 1.54556e+07 9.29173e-10 -2.37472e+06)
(-689843 -3.48307e+07 7.16414e-10 1.44641e+07 -8.94772e-10 -2.37472e+06)
(307874 -3.50329e+07 -5.98732e-10 1.34664e+07 -4.96756e-10 -2.37472e+06)
(1.31096e+06 -3.52065e+07 -3.65976e-10 1.24633e+07 4.41126e-10 -2.37472e+06)
(2.31859e+06 -3.53514e+07 -8.74256e-10 1.14556e+07 -7.68544e-10 -2.37472e+06)
(3.32995e+06 -3.54674e+07 -4.80645e-10 1.04443e+07 -1.20771e-09 -2.37472e+06)
(4.34421e+06 -3.55545e+07 -6.74014e-10 9.43003e+06 1.5553e-10 -2.37472e+06)
(5.36054e+06 -3.56126e+07 -1.35713e-09 8.41369e+06 2.87182e-10 -2.37472e+06)
(6.37812e+06 -3.56417e+07 1.60447e-09 7.39611e+06 -1.63742e-09 -2.37472e+06)
(7.39611e+06 -3.56417e+07 1.36711e-09 6.37812e+06 -2.45945e-10 -2.37472e+06)
(8.41369e+06 -3.56126e+07 -2.73907e-09 5.36054e+06 4.54778e-10 -2.37472e+06)
(9.43003e+06 -3.55545e+07 -1.57991e-10 4.34421e+06 6.71371e-10 -2.37472e+06)
(1.04443e+07 -3.54674e+07 -1.93699e-10 3.32995e+06 -1.92261e-09 -2.37472e+06)
(1.14556e+07 -3.53514e+07 5.15844e-10 2.31859e+06 5.86797e-10 -2.37472e+06)
(1.24633e+07 -3.52065e+07 -1.37794e-09 1.31096e+06 1.51579e-10 -2.37472e+06)
(1.34664e+07 -3.50329e+07 7.44511e-10 307875 8.97347e-10 -2.37472e+06)
(1.44641e+07 -3.48307e+07 1.62108e-10 -689843 -1.62559e-09 -2.37472e+06)
(1.54556e+07 -3.46002e+07 6.89868e-10 -1.68138e+06 -4.84038e-11 -2.37472e+06)
(1.64402e+07 -3.43414e+07 -6.74751e-10 -2.66593e+06 1.0066e-09 -2.37472e+06)
(1.74169e+07 -3.40546e+07 9.23529e-10 -3.64269e+06 1.25223e-09 -2.37472e+06)
(1.83851e+07 -3.374e+07 -2.23887e-10 -4.61086e+06 -3.12827e-10 -2.37472e+06)
(1.93439e+07 -3.33979e+07 -3.95467e-12 -5.56965e+06 -5.69581e-12 -2.37472e+06)
(2.02925e+07 -3.30286e+07 -4.31581e-10 -6.51828e+06 -6.40942e-10 -2.37472e+06)
(2.12302e+07 -3.26323e+07 -1.11856e-09 -7.45598e+06 -6.65046e-10 -2.37472e+06)
(2.21562e+07 -3.22094e+07 9.66743e-10 -8.38198e+06 -6.15852e-10 -2.37472e+06)
(2.30698e+07 -3.17602e+07 1.25999e-09 -9.29553e+06 -1.23452e-09 -2.37472e+06)
(2.39701e+07 -3.12852e+07 -1.38106e-09 -1.01959e+07 -8.13236e-11 -2.37472e+06)
(2.48565e+07 -3.07846e+07 -1.1076e-09 -1.10823e+07 1.52394e-09 -2.37472e+06)
(2.57283e+07 -3.02589e+07 6.92454e-10 -1.1954e+07 6.6426e-11 -2.37472e+06)
(2.65847e+07 -2.97085e+07 1.70816e-12 -1.28104e+07 3.18208e-12 -2.37472e+06)
(2.7425e+07 -2.91339e+07 5.09229e-10 -1.36508e+07 -2.62963e-10 -2.37472e+06)
(2.82486e+07 -2.85356e+07 1.53631e-09 -1.44743e+07 -7.71969e-10 -2.37472e+06)
(2.90547e+07 -2.79139e+07 1.70153e-10 -1.52805e+07 3.52407e-10 -2.37472e+06)
(2.98428e+07 -2.72695e+07 -7.10998e-10 -1.60686e+07 1.18894e-09 -2.37472e+06)
(3.06121e+07 -2.66029e+07 1.58662e-10 -1.68379e+07 3.5409e-10 -2.37472e+06)
(3.13621e+07 -2.59145e+07 -4.62199e-10 -1.75879e+07 -1.07228e-09 -2.37472e+06)
(3.20922e+07 -2.52051e+07 -3.8276e-10 -1.83179e+07 5.73562e-10 -2.37472e+06)
(3.28017e+07 -2.4475e+07 2.05484e-12 -1.90274e+07 5.16836e-12 -2.37472e+06)
(3.349e+07 -2.3725e+07 5.36477e-10 -1.97158e+07 -2.01649e-10 -2.37472e+06)
(3.41566e+07 -2.29557e+07 -1.34235e-10 -2.03824e+07 -3.679e-10 -2.37472e+06)
(3.4801e+07 -2.21676e+07 -5.4147e-10 -2.10268e+07 1.87816e-10 -2.37472e+06)
(3.54227e+07 -2.13615e+07 1.20678e-09 -2.16484e+07 -3.82989e-12 -2.37472e+06)
(3.6021e+07 -2.05379e+07 4.78065e-12 -2.22468e+07 1.50788e-11 -2.37472e+06)
(3.65956e+07 -1.96976e+07 -1.53652e-09 -2.28214e+07 8.60096e-10 -2.37472e+06)
(3.7146e+07 -1.88412e+07 4.43661e-10 -2.33718e+07 -5.33137e-10 -2.37472e+06)
(3.76717e+07 -1.79694e+07 9.61075e-10 -2.38975e+07 1.35807e-09 -2.37472e+06)
(3.81723e+07 -1.7083e+07 -9.68512e-11 -2.4398e+07 -3.79459e-10 -2.37472e+06)
(3.86473e+07 -1.61826e+07 -1.29449e-09 -2.48731e+07 -4.81873e-10 -2.37472e+06)
(3.90965e+07 -1.52691e+07 1.20077e-09 -2.53223e+07 1.14997e-10 -2.37472e+06)
(3.95194e+07 -1.43431e+07 7.22722e-10 -2.57452e+07 6.52618e-10 -2.37472e+06)
(3.99157e+07 -1.34054e+07 -1.68832e-09 -2.61414e+07 3.25188e-10 -2.37472e+06)
(4.0285e+07 -1.24568e+07 0 -2.65108e+07 0 -2.37472e+06)
(4.06271e+07 -1.1498e+07 2.55504e-10 -2.68529e+07 1.54186e-09 -2.37472e+06)
(4.09417e+07 -1.05298e+07 1.69942e-09 -2.71674e+07 -2.61083e-10 -2.37472e+06)
(4.12285e+07 -9.55305e+06 -6.71285e-10 -2.74542e+07 -6.80256e-10 -2.37472e+06)
(4.14873e+07 -8.5685e+06 -1.66044e-09 -2.7713e+07 5.87425e-10 -2.37472e+06)
(4.17178e+07 -7.57696e+06 5.28252e-10 -2.79436e+07 -4.48022e-10 -2.37472e+06)
(4.192e+07 -6.57924e+06 5.34107e-10 -2.81458e+07 -4.45684e-10 -2.37472e+06)
(4.20936e+07 -5.57616e+06 5.40831e-10 -2.83194e+07 -4.32755e-10 -2.37472e+06)
(4.22385e+07 -4.56853e+06 -4.98329e-11 -2.84642e+07 -7.74423e-10 -2.37472e+06)
(4.23545e+07 -3.55717e+06 1.93848e-11 -2.85803e+07 3.87528e-10 -2.37472e+06)
(4.24416e+07 -2.54291e+06 0 -2.86674e+07 0 -2.37472e+06)
(4.24997e+07 -1.52658e+06 -1.66211e-11 -2.87255e+07 -7.75847e-10 -2.37472e+06)
(4.25288e+07 -508997 0 -2.87546e+07 0 -2.37472e+06)
(-2.78392e+07 -495762 4.92809e-12 4.15907e+07 -5.5329e-10 -2.31095e+06)
(-2.78109e+07 -1.48688e+06 5.02567e-12 4.15624e+07 1.07663e-13 -2.31095e+06)
(-2.77543e+07 -2.47679e+06 -1.52869e-09 4.15058e+07 -5.45974e-11 -2.31095e+06)
(-2.76694e+07 -3.46467e+06 -7.8671e-10 4.14209e+07 5.1465e-10 -2.31095e+06)
(-2.75564e+07 -4.44973e+06 1.14241e-09 4.13079e+07 7.35122e-11 -2.31095e+06)
(-2.74153e+07 -5.43116e+06 -6.66394e-10 4.11668e+07 -1.16249e-09 -2.31095e+06)
(-2.72462e+07 -6.40817e+06 -3.85602e-10 4.09977e+07 -3.58946e-11 -2.31095e+06)
(-2.70493e+07 -7.37994e+06 -8.69511e-10 4.08008e+07 1.01952e-09 -2.31095e+06)
(-2.68247e+07 -8.3457e+06 3.09939e-10 4.05762e+07 5.95218e-10 -2.31095e+06)
(-2.65727e+07 -9.30465e+06 7.68944e-10 4.03241e+07 1.04959e-10 -2.31095e+06)
(-2.62933e+07 -1.0256e+07 2.42436e-10 4.00448e+07 -1.64214e-09 -2.31095e+06)
(-2.59869e+07 -1.1199e+07 1.88903e-10 3.97384e+07 -1.09041e-09 -2.31095e+06)
(-2.56537e+07 -1.21329e+07 3.55521e-10 3.94052e+07 2.31312e-09 -2.31095e+06)
(-2.5294e+07 -1.30568e+07 -1.13408e-10 3.90455e+07 5.41617e-10 -2.31095e+06)
(-2.4908e+07 -1.39701e+07 2.30919e-10 3.86595e+07 -1.08227e-09 -2.31095e+06)
(-2.44961e+07 -1.48721e+07 7.46924e-10 3.82476e+07 1.68078e-10 -2.31095e+06)
(-2.40586e+07 -1.57619e+07 3.68286e-10 3.78101e+07 8.84177e-11 -2.31095e+06)
(-2.35959e+07 -1.66388e+07 -1.29531e-10 3.73474e+07 5.37988e-10 -2.31095e+06)
(-2.31084e+07 -1.75022e+07 -2.87071e-10 3.68598e+07 1.06874e-09 -2.31095e+06)
(-2.25963e+07 -1.83512e+07 1.78204e-09 3.63478e+07 -6.41494e-10 -2.31095e+06)
(-2.20603e+07 -1.91854e+07 9.62594e-12 3.58118e+07 2.90125e-12 -2.31095e+06)
(-2.15006e+07 -2.00038e+07 3.59576e-10 3.52521e+07 1.14002e-10 -2.31095e+06)
(-2.09178e+07 -2.0806e+07 1.27099e-09 3.46693e+07 -1.60126e-10 -2.31095e+06)
(-2.03123e+07 -2.15912e+07 1.77783e-10 3.40638e+07 6.48004e-10 -2.31095e+06)
(-1.96847e+07 -2.23588e+07 -3.60529e-10 3.34362e+07 -1.31546e-10 -2.31095e+06)
(-1.90354e+07 -2.31081e+07 -7.07442e-10 3.27869e+07 -2.69632e-10 -2.31095e+06)
(-1.83649e+07 -2.38386e+07 -1.98842e-10 3.21164e+07 5.16383e-10 -2.31095e+06)
(-1.76739e+07 -2.45497e+07 1.8062e-12 3.14254e+07 7.48154e-13 -2.31095e+06)
(-1.69629e+07 -2.52407e+07 1.2239e-09 3.07144e+07 -1.88254e-09 -2.31095e+06)
(-1.62324e+07 -2.59111e+07 5.78392e-10 2.99839e+07 -3.47151e-10 -2.31095e+06)
(-1.5483e+07 -2.65604e+07 -4.7144e-10 2.92345e+07 1.00119e-09 -2.31095e+06)
(-1.47154e+07 -2.71881e+07 -6.28734e-12 2.84669e+07 -3.03573e-12 -2.31095e+06)
(-1.39303e+07 -2.77936e+07 9.46385e-11 2.76817e+07 6.66133e-10 -2.31095e+06)
(-1.31281e+07 -2.83764e+07 -2.60042e-10 2.68796e+07 4.88434e-10 -2.31095e+06)
(-1.23096e+07 -2.8936e+07 -4.13716e-10 2.60611e+07 -8.50079e-10 -2.31095e+06)
(-1.14755e+07 -2.94721e+07 6.03292e-10 2.5227e+07 -2.97873e-10 -2.31095e+06)
(-1.06264e+07 -2.99841e+07 0 2.43779e+07 0 -2.31095e+06)
(-9.76305e+06 -3.04717e+07 6.60109e-10 2.35145e+07 3.91661e-10 -2.31095e+06)
(-8.88611e+06 -3.09344e+07 6.48496e-10 2.26376e+07 3.97399e-10 -2.31095e+06)
(-7.99632e+06 -3.13719e+07 5.81474e-10 2.17478e+07 -9.41618e-10 -2.31095e+06)
(-7.0944e+06 -3.17838e+07 6.45302e-10 2.08459e+07 4.21251e-10 -2.31095e+06)
(-6.18108e+06 -3.21697e+07 -6.22257e-10 1.99326e+07 9.15114e-10 -2.31095e+06)
(-5.25712e+06 -3.25295e+07 -6.27002e-10 1.90086e+07 9.11869e-10 -2.31095e+06)
(-4.32326e+06 -3.28627e+07 6.15996e-10 1.80747e+07 4.40862e-10 -2.31095e+06)
(-3.38026e+06 -3.31691e+07 -6.29976e-10 1.71317e+07 2.22901e-10 -2.31095e+06)
(-2.4289e+06 -3.34484e+07 -3.66885e-12 1.61804e+07 -2.78755e-12 -2.31095e+06)
(-1.46995e+06 -3.37005e+07 9.49864e-10 1.52214e+07 4.0732e-11 -2.31095e+06)
(-504197 -3.3925e+07 -9.94393e-10 1.42557e+07 6.19889e-10 -2.31095e+06)
(467578 -3.41219e+07 1.41084e-09 1.32839e+07 -1.70528e-09 -2.31095e+06)
(1.44458e+06 -3.4291e+07 7.29345e-11 1.23069e+07 -6.6536e-10 -2.31095e+06)
(2.42601e+06 -3.44321e+07 -8.13379e-10 1.13255e+07 1.49511e-09 -2.31095e+06)
(3.41107e+06 -3.45452e+07 -8.47603e-11 1.03404e+07 6.6947e-10 -2.31095e+06)
(4.39896e+06 -3.463e+07 -3.73766e-10 9.35253e+06 4.0801e-10 -2.31095e+06)
(5.38886e+06 -3.46866e+07 3.80965e-10 8.36263e+06 -4.01279e-10 -2.31095e+06)
(6.37998e+06 -3.47149e+07 1.32101e-09 7.37151e+06 -2.51662e-10 -2.31095e+06)
(7.37151e+06 -3.47149e+07 -1.70723e-09 6.37998e+06 6.32655e-10 -2.31095e+06)
(8.36262e+06 -3.46866e+07 -4.02052e-10 5.38886e+06 3.80159e-10 -2.31095e+06)
(9.35253e+06 -3.463e+07 1.33743e-09 4.39896e+06 -1.87499e-10 -2.31095e+06)
(1.03404e+07 -3.45452e+07 1.50115e-10 3.41107e+06 -6.58808e-10 -2.31095e+06)
(1.13255e+07 -3.44321e+07 6.63783e-12 2.42601e+06 7.55083e-12 -2.31095e+06)
(1.23069e+07 -3.4291e+07 2.44982e-10 1.44458e+06 2.86837e-10 -2.31095e+06)
(1.32839e+07 -3.41219e+07 4.26186e-10 467578 -3.52872e-10 -2.31095e+06)
(1.42557e+07 -3.3925e+07 -1.91599e-10 -504197 6.44054e-10 -2.31095e+06)
(1.52214e+07 -3.37005e+07 4.36347e-10 -1.46995e+06 -3.40228e-10 -2.31095e+06)
(1.61804e+07 -3.34484e+07 1.32019e-09 -2.4289e+06 -1.00622e-09 -2.31095e+06)
(1.71317e+07 -3.31691e+07 -4.34366e-10 -3.38026e+06 1.27546e-09 -2.31095e+06)
(1.80747e+07 -3.28627e+07 -1.3531e-09 -4.32326e+06 9.61529e-10 -2.31095e+06)
(1.90086e+07 -3.25295e+07 4.38631e-10 -5.25712e+06 6.31748e-10 -2.31095e+06)
(1.99326e+07 -3.21697e+07 -4.27615e-10 -6.18108e+06 -6.35052e-10 -2.31095e+06)
(2.08459e+07 -3.17838e+07 4.20412e-10 -7.0944e+06 6.44016e-10 -2.31095e+06)
(2.17478e+07 -3.13719e+07 2.04355e-10 -7.99632e+06 3.2303e-10 -2.31095e+06)
(2.26376e+07 -3.09344e+07 -3.96597e-10 -8.88611e+06 -6.47187e-10 -2.31095e+06)
(2.35145e+07 -3.04717e+07 8.7472e-11 -9.76305e+06 -9.36923e-10 -2.31095e+06)
(2.43779e+07 -2.99841e+07 1.3409e-09 -1.06264e+07 1.12911e-10 -2.31095e+06)
(2.5227e+07 -2.94721e+07 1.84631e-10 -1.14755e+07 3.3246e-10 -2.31095e+06)
(2.60611e+07 -2.8936e+07 -1.83167e-10 -1.23096e+07 -3.41214e-10 -2.31095e+06)
(2.68796e+07 -2.83764e+07 1.75062e-10 -1.31281e+07 3.37597e-10 -2.31095e+06)
(2.76817e+07 -2.77936e+07 -3.43571e-10 -1.39303e+07 -6.86368e-10 -2.31095e+06)
(2.84669e+07 -2.71881e+07 6.63656e-10 -1.47154e+07 -1.17061e-09 -2.31095e+06)
(2.92345e+07 -2.65604e+07 1.29597e-12 -1.5483e+07 2.78503e-12 -2.31095e+06)
(2.99839e+07 -2.59111e+07 -1.51584e-09 -1.62324e+07 6.76469e-10 -2.31095e+06)
(3.07144e+07 -2.52407e+07 -1.01485e-09 -1.69629e+07 4.41248e-10 -2.31095e+06)
(3.14254e+07 -2.45497e+07 1.53144e-09 -1.76739e+07 -6.40389e-10 -2.31095e+06)
(3.21164e+07 -2.38386e+07 1.17182e-09 -1.83649e+07 -4.79361e-11 -2.31095e+06)
(3.27869e+07 -2.31081e+07 -1.55199e-09 -1.90354e+07 5.88828e-10 -2.31095e+06)
(3.34362e+07 -2.23588e+07 -7.82549e-10 -1.96847e+07 -5.30484e-10 -2.31095e+06)
(3.40638e+07 -2.15912e+07 -2.51619e-10 -2.03123e+07 -7.21446e-10 -2.31095e+06)
(3.46693e+07 -2.0806e+07 1.6938e-09 -2.09178e+07 -1.67222e-10 -2.31095e+06)
(3.52521e+07 -2.00038e+07 -2.27412e-10 -2.15006e+07 -7.17289e-10 -2.31095e+06)
(3.58118e+07 -1.91854e+07 -1.48074e-09 -2.20603e+07 8.39249e-10 -2.31095e+06)
(3.63478e+07 -1.83512e+07 1.69941e-09 -2.25963e+07 -9.45283e-11 -2.31095e+06)
(3.68598e+07 -1.75022e+07 2.1147e-12 -2.31084e+07 7.81766e-12 -2.31095e+06)
(3.73474e+07 -1.66388e+07 -1.26369e-09 -2.35959e+07 -4.76398e-10 -2.31095e+06)
(3.78101e+07 -1.57619e+07 1.17349e-12 -2.40586e+07 4.88793e-12 -2.31095e+06)
(3.82476e+07 -1.48721e+07 1.66637e-10 -2.44961e+07 7.40521e-10 -2.31095e+06)
(3.86595e+07 -1.39701e+07 3.85648e-10 -2.4908e+07 -8.5562e-10 -2.31095e+06)
(3.90455e+07 -1.30568e+07 -6.16776e-10 -2.5294e+07 -2.71621e-10 -2.31095e+06)
(3.94052e+07 -1.21329e+07 1.1554e-09 -2.56537e+07 1.71302e-10 -2.31095e+06)
(3.97384e+07 -1.1199e+07 6.0895e-10 -2.59869e+07 2.90224e-10 -2.31095e+06)
(4.00448e+07 -1.0256e+07 -1.03815e-09 -2.62933e+07 5.36356e-10 -2.31095e+06)
(4.03241e+07 -9.30465e+06 -1.02863e-10 -2.65727e+07 -7.53587e-10 -2.31095e+06)
(4.05762e+07 -8.3457e+06 -1.00578e-09 -2.68247e+07 8.9396e-10 -2.31095e+06)
(4.08008e+07 -7.37994e+06 -1.05942e-09 -2.70493e+07 4.98345e-10 -2.31095e+06)
(4.09977e+07 -6.40817e+06 5.86591e-10 -2.72462e+07 3.31815e-10 -2.31095e+06)
(4.11668e+07 -5.43116e+06 1.04326e-09 -2.74153e+07 -8.48535e-10 -2.31095e+06)
(4.13079e+07 -4.44973e+06 5.5233e-10 -2.75564e+07 -3.3023e-11 -2.31095e+06)
(4.14209e+07 -3.46467e+06 -3.83464e-11 -2.76694e+07 -7.66598e-10 -2.31095e+06)
(4.15058e+07 -2.47679e+06 0 -2.77543e+07 0 -2.31095e+06)
(4.15624e+07 -1.48688e+06 0 -2.78109e+07 0 -2.31095e+06)
(4.15907e+07 -495762 0 -2.78392e+07 0 -2.31095e+06)
(-2.71121e+07 -484307 -3.8194e-10 4.07136e+07 -2.72709e-12 -2.24744e+06)
(-2.70844e+07 -1.45253e+06 -1.80827e-11 4.0686e+07 1.06937e-09 -2.24744e+06)
(-2.70291e+07 -2.41956e+06 3.38711e-10 4.06307e+07 1.08229e-09 -2.24744e+06)
(-2.69462e+07 -3.38462e+06 1.0401e-10 4.05478e+07 -2.13649e-09 -2.24744e+06)
(-2.68358e+07 -4.34692e+06 8.25109e-10 4.04374e+07 -1.01863e-09 -2.24744e+06)
(-2.66979e+07 -5.30568e+06 -9.22597e-10 4.02995e+07 2.07302e-09 -2.24744e+06)
(-2.65328e+07 -6.26011e+06 -2.84459e-12 4.01344e+07 -2.64796e-13 -2.24744e+06)
(-2.63404e+07 -7.20943e+06 8.71891e-10 3.9942e+07 -9.81935e-10 -2.24744e+06)
(-2.6121e+07 -8.15287e+06 1.17964e-10 3.97226e+07 -1.06305e-09 -2.24744e+06)
(-2.58748e+07 -9.08966e+06 3.7454e-10 3.94764e+07 5.11239e-11 -2.24744e+06)
(-2.56019e+07 -1.0019e+07 1.32597e-09 3.92035e+07 1.28196e-09 -2.24744e+06)
(-2.53026e+07 -1.09403e+07 -7.40217e-10 3.89042e+07 -1.22663e-10 -2.24744e+06)
(-2.49771e+07 -1.18525e+07 -1.85146e-10 3.85787e+07 1.05337e-09 -2.24744e+06)
(-2.46257e+07 -1.27552e+07 -9.4722e-12 3.82272e+07 -1.849e-12 -2.24744e+06)
(-2.42486e+07 -1.36474e+07 -1.49196e-10 3.78502e+07 -1.12419e-09 -2.24744e+06)
(-2.38462e+07 -1.45284e+07 0 3.74478e+07 0 -2.24744e+06)
(-2.34189e+07 -1.53977e+07 -3.71397e-10 3.70204e+07 -8.91644e-11 -2.24744e+06)
(-2.29668e+07 -1.62544e+07 0 3.65684e+07 0 -2.24744e+06)
(-2.24905e+07 -1.70978e+07 1.2735e-09 3.60921e+07 -1.87141e-09 -2.24744e+06)
(-2.19903e+07 -1.79272e+07 7.26903e-10 3.55919e+07 2.07812e-10 -2.24744e+06)
(-2.14667e+07 -1.87421e+07 -1.35141e-09 3.50683e+07 1.82675e-09 -2.24744e+06)
(-2.09199e+07 -1.95417e+07 3.12149e-10 3.45215e+07 -1.02301e-09 -2.24744e+06)
(-2.03506e+07 -2.03253e+07 -7.15651e-10 3.39522e+07 -2.38191e-10 -2.24744e+06)
(-1.97591e+07 -2.10923e+07 -1.06506e-09 3.33607e+07 1.89392e-09 -2.24744e+06)
(-1.9146e+07 -2.18422e+07 3.49745e-10 3.27476e+07 1.27611e-10 -2.24744e+06)
(-1.85117e+07 -2.25742e+07 7.35967e-10 3.21133e+07 -8.64054e-10 -2.24744e+06)
(-1.78567e+07 -2.32878e+07 3.48613e-10 3.14583e+07 1.38602e-10 -2.24744e+06)
(-1.71817e+07 -2.39825e+07 6.93197e-10 3.07832e+07 2.87132e-10 -2.24744e+06)
(-1.6487e+07 -2.46575e+07 -3.50752e-10 3.00886e+07 -1.5119e-10 -2.24744e+06)
(-1.57734e+07 -2.53125e+07 6.20012e-12 2.9375e+07 2.77817e-12 -2.24744e+06)
(-1.50414e+07 -2.59468e+07 -4.4685e-10 2.8643e+07 9.71699e-10 -2.24744e+06)
(-1.42915e+07 -2.65599e+07 -2.57271e-12 2.78931e+07 -1.24218e-12 -2.24744e+06)
(-1.35245e+07 -2.71514e+07 8.63016e-12 2.71261e+07 4.31994e-12 -2.24744e+06)
(-1.27409e+07 -2.77207e+07 -8.29664e-10 2.63425e+07 7.74528e-10 -2.24744e+06)
(-1.19413e+07 -2.82675e+07 8.38122e-10 2.55429e+07 -7.63953e-10 -2.24744e+06)
(-1.11265e+07 -2.87911e+07 5.23469e-10 2.4728e+07 -9.32659e-10 -2.24744e+06)
(-1.0297e+07 -2.92913e+07 5.28364e-10 2.38986e+07 -9.29895e-10 -2.24744e+06)
(-9.45356e+06 -2.97676e+07 2.45696e-12 2.30551e+07 1.45778e-12 -2.24744e+06)
(-8.59689e+06 -3.02197e+07 -1.76317e-09 2.21985e+07 1.42823e-09 -2.24744e+06)
(-7.72766e+06 -3.0647e+07 5.65289e-10 2.13292e+07 -9.07941e-10 -2.24744e+06)
(-6.84657e+06 -3.10494e+07 -3.72272e-11 2.04482e+07 -1.30152e-09 -2.24744e+06)
(-5.95436e+06 -3.14265e+07 -6.01361e-10 1.95559e+07 8.84442e-10 -2.24744e+06)
(-5.05174e+06 -3.17779e+07 0 1.86533e+07 0 -2.24744e+06)
(-4.13946e+06 -3.21034e+07 -8.37572e-12 1.7741e+07 1.3092e-09 -2.24744e+06)
(-3.21825e+06 -3.24027e+07 -2.29922e-12 1.68198e+07 -1.69569e-12 -2.24744e+06)
(-2.28887e+06 -3.26756e+07 2.14986e-09 1.58905e+07 2.90247e-10 -2.24744e+06)
(-1.35208e+06 -3.29218e+07 -6.55324e-10 1.49537e+07 8.45236e-10 -2.24744e+06)
(-408638 -3.31412e+07 5.81999e-10 1.40102e+07 4.69005e-10 -2.24744e+06)
(540684 -3.33336e+07 5.84869e-10 1.30609e+07 4.85254e-10 -2.24744e+06)
(1.49511e+06 -3.34987e+07 -5.72714e-10 1.21065e+07 -4.89144e-10 -2.24744e+06)
(2.45387e+06 -3.36366e+07 9.9152e-10 1.11477e+07 -5.52381e-10 -2.24744e+06)