/*--------------------------------*- C++ -*----------------------------------*\
| =========                 |                                                 |
| \\      /  F ield         | OpenFOAM: The Open Source CFD Toolbox           |
|  \\    /   O peration     | Version:  2312                                  |
|   \\  /    A nd           | Website:  www.openfoam.com                      |
|    \\/     M anipulation  |                                                 |
\*---------------------------------------------------------------------------*/
FoamFile
{
    version     2.0;
    format      ascii;
    arch        "LSB;label=32;scalar=64";
    class       volVectorField;
    location    "30";
    object      U;
}
// * * * * * * * * * * * * * * * * * * * * * * * * * * * * * * * * * * * * * //

dimensions      [0 1 -1 0 0 0 0];

internalField   nonuniform List<vector> 
12870
(
(0.0330817 0.000236207 0)
(0.0330749 0.000708572 0)
(0.0330614 0.00118079 0)
(0.0330412 0.00165277 0)
(0.0330142 0.00212442 0)
(0.0329805 0.00259562 0)
(0.0329401 0.00306631 0)
(0.032893 0.00353636 0)
(0.0328391 0.00400569 0)
(0.0327786 0.00447421 0)
(0.0327113 0.00494182 0)
(0.0326374 0.00540841 0)
(0.0325569 0.00587391 0)
(0.0324697 0.0063382 0)
(0.0323759 0.00680121 0)
(0.0322754 0.00726283 0)
(0.0321684 0.00772296 0)
(0.0320549 0.00818152 0)
(0.0319348 0.00863842 0)
(0.0318082 0.00909355 0)
(0.0316751 0.00954682 0)
(0.0315355 0.00999816 0)
(0.0313896 0.0104474 0)
(0.0312372 0.0108946 0)
(0.0310784 0.0113395 0)
(0.0309133 0.0117822 0)
(0.0307419 0.0122224 0)
(0.0305643 0.0126601 0)
(0.0303804 0.0130953 0)
(0.0301903 0.0135278 0)
(0.029994 0.0139575 0)
(0.0297917 0.0143844 0)
(0.0295832 0.0148083 0)
(0.0293688 0.0152292 0)
(0.0291483 0.015647 0)
(0.0289219 0.0160617 0)
(0.0286896 0.016473 0)
(0.0284514 0.016881 0)
(0.0282075 0.0172856 0)
(0.0279578 0.0176866 0)
(0.0277024 0.018084 0)
(0.0274413 0.0184777 0)
(0.0271747 0.0188677 0)
(0.0269025 0.0192538 0)
(0.0266248 0.019636 0)
(0.0263417 0.0200142 0)
(0.0260532 0.0203883 0)
(0.0257594 0.0207583 0)
(0.0254604 0.021124 0)
(0.0251561 0.0214854 0)
(0.0248468 0.0218424 0)
(0.0245324 0.022195 0)
(0.0242129 0.022543 0)
(0.0238885 0.0228865 0)
(0.0235593 0.0232253 0)
(0.0232253 0.0235593 0)
(0.0228865 0.0238885 0)
(0.022543 0.0242129 0)
(0.022195 0.0245324 0)
(0.0218424 0.0248468 0)
(0.0214854 0.0251561 0)
(0.021124 0.0254604 0)
(0.0207583 0.0257594 0)
(0.0203883 0.0260532 0)
(0.0200142 0.0263417 0)
(0.019636 0.0266248 0)
(0.0192538 0.0269025 0)
(0.0188677 0.0271747 0)
(0.0184777 0.0274413 0)
(0.018084 0.0277024 0)
(0.0176866 0.0279578 0)
(0.0172856 0.0282075 0)
(0.016881 0.0284514 0)
(0.016473 0.0286896 0)
(0.0160617 0.0289219 0)
(0.015647 0.0291483 0)
(0.0152292 0.0293688 0)
(0.0148083 0.0295832 0)
(0.0143844 0.0297917 0)
(0.0139575 0.029994 0)
(0.0135278 0.0301903 0)
(0.0130953 0.0303804 0)
(0.0126601 0.0305643 0)
(0.0122224 0.0307419 0)
(0.0117822 0.0309133 0)
(0.0113395 0.0310784 0)
(0.0108946 0.0312372 0)
(0.0104474 0.0313896 0)
(0.00999816 0.0315355 0)
(0.00954682 0.0316751 0)
(0.00909355 0.0318082 0)
(0.00863842 0.0319348 0)
(0.00818152 0.0320549 0)
(0.00772296 0.0321684 0)
(0.00726283 0.0322754 0)
(0.00680121 0.0323759 0)
(0.0063382 0.0324697 0)
(0.00587391 0.0325569 0)
(0.00540841 0.0326374 0)
(0.00494182 0.0327113 0)
(0.00447421 0.0327786 0)
(0.00400569 0.0328391 0)
(0.00353636 0.032893 0)
(0.00306631 0.0329401 0)
(0.00259562 0.0329805 0)
(0.00212442 0.0330142 0)
(0.00165277 0.0330412 0)
(0.00118079 0.0330614 0)
(0.000708572 0.0330749 0)
(0.000236207 0.0330817 0)
(0.0328434 0.000234505 0)
(0.0328367 0.000703468 0)
(0.0328233 0.00117229 0)
(0.0328032 0.00164087 0)
(0.0327764 0.00210911 0)
(0.032743 0.00257693 0)
(0.0327028 0.00304422 0)
(0.032656 0.00351089 0)
(0.0326026 0.00397684 0)
(0.0325425 0.00444198 0)
(0.0324757 0.00490622 0)
(0.0324023 0.00536945 0)
(0.0323224 0.0058316 0)
(0.0322358 0.00629255 0)
(0.0321427 0.00675222 0)
(0.032043 0.00721051 0)
(0.0319367 0.00766733 0)
(0.031824 0.00812259 0)
(0.0317048 0.00857619 0)
(0.0315791 0.00902804 0)
(0.0314469 0.00947806 0)
(0.0313084 0.00992613 0)
(0.0311634 0.0103722 0)
(0.0310122 0.0108161 0)
(0.0308545 0.0112579 0)
(0.0306906 0.0116973 0)
(0.0305205 0.0121344 0)
(0.0303441 0.0125689 0)
(0.0301615 0.013001 0)
(0.0299728 0.0134303 0)
(0.029778 0.0138569 0)
(0.0295771 0.0142807 0)
(0.0293701 0.0147016 0)
(0.0291572 0.0151195 0)
(0.0289383 0.0155343 0)
(0.0287136 0.015946 0)
(0.0284829 0.0163544 0)
(0.0282465 0.0167594 0)
(0.0280043 0.0171611 0)
(0.0277564 0.0175592 0)
(0.0275028 0.0179537 0)
(0.0272437 0.0183446 0)
(0.0269789 0.0187318 0)
(0.0267087 0.0191151 0)
(0.026433 0.0194946 0)
(0.0261519 0.01987 0)
(0.0258655 0.0202414 0)
(0.0255739 0.0206087 0)
(0.025277 0.0209718 0)
(0.0249749 0.0213306 0)
(0.0246678 0.0216851 0)
(0.0243556 0.0220351 0)
(0.0240385 0.0223806 0)
(0.0237165 0.0227216 0)
(0.0233896 0.023058 0)
(0.023058 0.0233896 0)
(0.0227216 0.0237165 0)
(0.0223806 0.0240385 0)
(0.0220351 0.0243556 0)
(0.0216851 0.0246678 0)
(0.0213306 0.0249749 0)
(0.0209718 0.025277 0)
(0.0206087 0.0255739 0)
(0.0202414 0.0258655 0)
(0.01987 0.0261519 0)
(0.0194946 0.026433 0)
(0.0191151 0.0267087 0)
(0.0187318 0.0269789 0)
(0.0183446 0.0272437 0)
(0.0179537 0.0275028 0)
(0.0175592 0.0277564 0)
(0.0171611 0.0280043 0)
(0.0167594 0.0282465 0)
(0.0163544 0.0284829 0)
(0.015946 0.0287136 0)
(0.0155343 0.0289383 0)
(0.0151195 0.0291572 0)
(0.0147016 0.0293701 0)
(0.0142807 0.0295771 0)
(0.0138569 0.029778 0)
(0.0134303 0.0299728 0)
(0.013001 0.0301615 0)
(0.0125689 0.0303441 0)
(0.0121344 0.0305205 0)
(0.0116973 0.0306906 0)
(0.0112579 0.0308545 0)
(0.0108161 0.0310122 0)
(0.0103722 0.0311634 0)
(0.00992613 0.0313084 0)
(0.00947806 0.0314469 0)
(0.00902804 0.0315791 0)
(0.00857619 0.0317048 0)
(0.00812259 0.031824 0)
(0.00766733 0.0319367 0)
(0.00721051 0.032043 0)
(0.00675222 0.0321427 0)
(0.00629255 0.0322358 0)
(0.0058316 0.0323224 0)
(0.00536945 0.0324023 0)
(0.00490622 0.0324757 0)
(0.00444198 0.0325425 0)
(0.00397684 0.0326026 0)
(0.00351089 0.032656 0)
(0.00304422 0.0327028 0)
(0.00257693 0.032743 0)
(0.00210911 0.0327764 0)
(0.00164087 0.0328032 0)
(0.00117229 0.0328233 0)
(0.000703468 0.0328367 0)
(0.000234505 0.0328434 0)
(0.032614 0.000232868 0)
(0.0326074 0.000698555 0)
(0.0325941 0.0011641 0)
(0.0325741 0.00162941 0)
(0.0325475 0.00209438 0)
(0.0325143 0.00255893 0)
(0.0324745 0.00302296 0)
(0.032428 0.00348637 0)
(0.0323749 0.00394907 0)
(0.0323152 0.00441096 0)
(0.0322489 0.00487196 0)
(0.0321761 0.00533196 0)
(0.0320966 0.00579087 0)
(0.0320107 0.0062486 0)
(0.0319182 0.00670506 0)
(0.0318192 0.00716015 0)
(0.0317137 0.00761379 0)
(0.0316017 0.00806586 0)
(0.0314833 0.0085163 0)
(0.0313585 0.008965 0)
(0.0312273 0.00941187 0)
(0.0310897 0.00985682 0)
(0.0309458 0.0102998 0)
(0.0307956 0.0107406 0)
(0.0306391 0.0111792 0)
(0.0304763 0.0116156 0)
(0.0303073 0.0120496 0)
(0.0301322 0.0124812 0)
(0.0299509 0.0129102 0)
(0.0297635 0.0133365 0)
(0.02957 0.0137602 0)
(0.0293705 0.014181 0)
(0.029165 0.014599 0)
(0.0289536 0.0150139 0)
(0.0287362 0.0154259 0)
(0.028513 0.0158346 0)
(0.028284 0.0162402 0)
(0.0280492 0.0166424 0)
(0.0278087 0.0170412 0)
(0.0275626 0.0174366 0)
(0.0273108 0.0178284 0)
(0.0270534 0.0182165 0)
(0.0267905 0.018601 0)
(0.0265222 0.0189816 0)
(0.0262484 0.0193584 0)
(0.0259693 0.0197313 0)
(0.0256849 0.0201001 0)
(0.0253953 0.0204648 0)
(0.0251005 0.0208254 0)
(0.0248005 0.0211817 0)
(0.0244955 0.0215336 0)
(0.0241855 0.0218812 0)
(0.0238706 0.0222243 0)
(0.0235508 0.0225629 0)
(0.0232263 0.0228969 0)
(0.0228969 0.0232263 0)
(0.0225629 0.0235508 0)
(0.0222243 0.0238706 0)
(0.0218812 0.0241855 0)
(0.0215336 0.0244955 0)
(0.0211817 0.0248005 0)
(0.0208254 0.0251005 0)
(0.0204648 0.0253953 0)
(0.0201001 0.0256849 0)
(0.0197313 0.0259693 0)
(0.0193584 0.0262484 0)
(0.0189816 0.0265222 0)
(0.018601 0.0267905 0)
(0.0182165 0.0270534 0)
(0.0178284 0.0273108 0)
(0.0174366 0.0275626 0)
(0.0170412 0.0278087 0)
(0.0166424 0.0280492 0)
(0.0162402 0.028284 0)
(0.0158346 0.028513 0)
(0.0154259 0.0287362 0)
(0.0150139 0.0289536 0)
(0.014599 0.029165 0)
(0.014181 0.0293705 0)
(0.0137602 0.02957 0)
(0.0133365 0.0297635 0)
(0.0129102 0.0299509 0)
(0.0124812 0.0301322 0)
(0.0120496 0.0303073 0)
(0.0116156 0.0304763 0)
(0.0111792 0.0306391 0)
(0.0107406 0.0307956 0)
(0.0102998 0.0309458 0)
(0.00985682 0.0310897 0)
(0.00941187 0.0312273 0)
(0.008965 0.0313585 0)
(0.0085163 0.0314833 0)
(0.00806586 0.0316017 0)
(0.00761379 0.0317137 0)
(0.00716015 0.0318192 0)
(0.00670506 0.0319182 0)
(0.0062486 0.0320107 0)
(0.00579087 0.0320966 0)
(0.00533196 0.0321761 0)
(0.00487196 0.0322489 0)
(0.00441096 0.0323152 0)
(0.00394907 0.0323749 0)
(0.00348637 0.032428 0)
(0.00302296 0.0324745 0)
(0.00255893 0.0325143 0)
(0.00209438 0.0325475 0)
(0.00162941 0.0325741 0)
(0.0011641 0.0325941 0)
(0.000698555 0.0326074 0)
(0.000232868 0.032614 0)
(0.0323883 0.000231256 0)
(0.0323817 0.000693721 0)
(0.0323685 0.00115604 0)
(0.0323487 0.00161813 0)
(0.0323223 0.00207989 0)
(0.0322893 0.00254122 0)
(0.0322497 0.00300204 0)
(0.0322036 0.00346224 0)
(0.0321509 0.00392174 0)
(0.0320916 0.00438044 0)
(0.0320258 0.00483824 0)
(0.0319534 0.00529506 0)
(0.0318745 0.0057508 0)
(0.0317892 0.00620537 0)
(0.0316973 0.00665867 0)
(0.031599 0.00711061 0)
(0.0314943 0.0075611 0)
(0.0313831 0.00801005 0)
(0.0312655 0.00845737 0)
(0.0311415 0.00890296 0)
(0.0310112 0.00934674 0)
(0.0308746 0.00978861 0)
(0.0307317 0.0102285 0)
(0.0305825 0.0106663 0)
(0.0304271 0.0111019 0)
(0.0302654 0.0115352 0)
(0.0300976 0.0119662 0)
(0.0299237 0.0123948 0)
(0.0297436 0.0128208 0)
(0.0295575 0.0132442 0)
(0.0293654 0.013665 0)
(0.0291673 0.0140829 0)
(0.0289632 0.0144979 0)
(0.0287532 0.0149101 0)
(0.0285374 0.0153191 0)
(0.0283157 0.015725 0)
(0.0280883 0.0161278 0)
(0.0278551 0.0165272 0)
(0.0276163 0.0169233 0)
(0.0273718 0.0173159 0)
(0.0271218 0.017705 0)
(0.0268662 0.0180905 0)
(0.0266051 0.0184723 0)
(0.0263386 0.0188503 0)
(0.0260668 0.0192245 0)
(0.0257896 0.0195947 0)
(0.0255072 0.019961 0)
(0.0252196 0.0203232 0)
(0.0249268 0.0206812 0)
(0.0246289 0.0210351 0)
(0.024326 0.0213846 0)
(0.0240182 0.0217298 0)
(0.0237055 0.0220706 0)
(0.0233879 0.0224068 0)
(0.0230655 0.0227385 0)
(0.0227385 0.0230655 0)
(0.0224068 0.0233879 0)
(0.0220706 0.0237055 0)
(0.0217298 0.0240182 0)
(0.0213846 0.024326 0)
(0.0210351 0.0246289 0)
(0.0206812 0.0249268 0)
(0.0203232 0.0252196 0)
(0.019961 0.0255072 0)
(0.0195947 0.0257896 0)
(0.0192245 0.0260668 0)
(0.0188503 0.0263386 0)
(0.0184723 0.0266051 0)
(0.0180905 0.0268662 0)
(0.017705 0.0271218 0)
(0.0173159 0.0273718 0)
(0.0169233 0.0276163 0)
(0.0165272 0.0278551 0)
(0.0161278 0.0280883 0)
(0.015725 0.0283157 0)
(0.0153191 0.0285374 0)
(0.0149101 0.0287532 0)
(0.0144979 0.0289632 0)
(0.0140829 0.0291673 0)
(0.013665 0.0293654 0)
(0.0132442 0.0295575 0)
(0.0128208 0.0297436 0)
(0.0123948 0.0299237 0)
(0.0119662 0.0300976 0)
(0.0115352 0.0302654 0)
(0.0111019 0.0304271 0)
(0.0106663 0.0305825 0)
(0.0102285 0.0307317 0)
(0.00978861 0.0308746 0)
(0.00934674 0.0310112 0)
(0.00890296 0.0311415 0)
(0.00845737 0.0312655 0)
(0.00801005 0.0313831 0)
(0.0075611 0.0314943 0)
(0.00711061 0.031599 0)
(0.00665867 0.0316973 0)
(0.00620537 0.0317892 0)
(0.0057508 0.0318745 0)
(0.00529506 0.0319534 0)
(0.00483824 0.0320258 0)
(0.00438044 0.0320916 0)
(0.00392174 0.0321509 0)
(0.00346224 0.0322036 0)
(0.00300204 0.0322497 0)
(0.00254122 0.0322893 0)
(0.00207989 0.0323223 0)
(0.00161813 0.0323487 0)
(0.00115604 0.0323685 0)
(0.000693721 0.0323817 0)
(0.000231256 0.0323883 0)
(0.0321691 0.000229691 0)
(0.0321626 0.000689026 0)
(0.0321494 0.00114822 0)
(0.0321298 0.00160718 0)
(0.0321035 0.00206581 0)
(0.0320708 0.00252402 0)
(0.0320315 0.00298172 0)
(0.0319856 0.00343881 0)
(0.0319332 0.0038952 0)
(0.0318744 0.00435079 0)
(0.031809 0.00480549 0)
(0.0317371 0.00525922 0)
(0.0316588 0.00571187 0)
(0.031574 0.00616336 0)
(0.0314828 0.00661359 0)
(0.0313851 0.00706248 0)
(0.0312811 0.00750992 0)
(0.0311706 0.00795583 0)
(0.0310539 0.00840012 0)
(0.0309307 0.0088427 0)
(0.0308013 0.00928347 0)
(0.0306656 0.00972235 0)
(0.0305237 0.0101593 0)
(0.0303755 0.0105941 0)
(0.0302211 0.0110267 0)
(0.0300606 0.0114572 0)
(0.0298939 0.0118852 0)
(0.0297211 0.0123109 0)
(0.0295423 0.012734 0)
(0.0293575 0.0131546 0)
(0.0291666 0.0135725 0)
(0.0289699 0.0139876 0)
(0.0287672 0.0143998 0)
(0.0285586 0.0148091 0)
(0.0283442 0.0152154 0)
(0.0281241 0.0156186 0)
(0.0278982 0.0160186 0)
(0.0276666 0.0164154 0)
(0.0274294 0.0168087 0)
(0.0271866 0.0171987 0)
(0.0269382 0.0175852 0)
(0.0266843 0.017968 0)
(0.026425 0.0183472 0)
(0.0261604 0.0187227 0)
(0.0258903 0.0190944 0)
(0.0256151 0.0194621 0)
(0.0253345 0.0198259 0)
(0.0250488 0.0201856 0)
(0.0247581 0.0205413 0)
(0.0244622 0.0208927 0)
(0.0241614 0.0212399 0)
(0.0238556 0.0215827 0)
(0.023545 0.0219212 0)
(0.0232296 0.0222551 0)
(0.0229094 0.0225846 0)
(0.0225846 0.0229094 0)
(0.0222551 0.0232296 0)
(0.0219212 0.023545 0)
(0.0215827 0.0238556 0)
(0.0212399 0.0241614 0)
(0.0208927 0.0244622 0)
(0.0205413 0.0247581 0)
(0.0201856 0.0250488 0)
(0.0198259 0.0253345 0)
(0.0194621 0.0256151 0)
(0.0190944 0.0258903 0)
(0.0187227 0.0261604 0)
(0.0183472 0.026425 0)
(0.017968 0.0266843 0)
(0.0175852 0.0269382 0)
(0.0171987 0.0271866 0)
(0.0168087 0.0274294 0)
(0.0164154 0.0276666 0)
(0.0160186 0.0278982 0)
(0.0156186 0.0281241 0)
(0.0152154 0.0283442 0)
(0.0148091 0.0285586 0)
(0.0143998 0.0287672 0)
(0.0139876 0.0289699 0)
(0.0135725 0.0291666 0)
(0.0131546 0.0293575 0)
(0.012734 0.0295423 0)
(0.0123109 0.0297211 0)
(0.0118852 0.0298939 0)
(0.0114572 0.0300606 0)
(0.0110267 0.0302211 0)
(0.0105941 0.0303755 0)
(0.0101593 0.0305237 0)
(0.00972235 0.0306656 0)
(0.00928347 0.0308013 0)
(0.0088427 0.0309307 0)
(0.00840012 0.0310539 0)
(0.00795583 0.0311706 0)
(0.00750992 0.0312811 0)
(0.00706248 0.0313851 0)
(0.00661359 0.0314828 0)
(0.00616336 0.031574 0)
(0.00571187 0.0316588 0)
(0.00525922 0.0317371 0)
(0.00480549 0.031809 0)
(0.00435079 0.0318744 0)
(0.0038952 0.0319332 0)
(0.00343881 0.0319856 0)
(0.00298172 0.0320315 0)
(0.00252402 0.0320708 0)
(0.00206581 0.0321035 0)
(0.00160718 0.0321298 0)
(0.00114822 0.0321494 0)
(0.000689026 0.0321626 0)
(0.000229691 0.0321691 0)
(0.0319546 0.000228159 0)
(0.0319481 0.000684431 0)
(0.0319351 0.00114056 0)
(0.0319155 0.00159646 0)
(0.0318895 0.00205204 0)
(0.0318569 0.00250719 0)
(0.0318179 0.00296184 0)
(0.0317723 0.00341588 0)
(0.0317203 0.00386922 0)
(0.0316618 0.00432178 0)
(0.0315969 0.00477345 0)
(0.0315255 0.00522415 0)
(0.0314477 0.00567379 0)
(0.0313635 0.00612227 0)
(0.0312728 0.00656949 0)
(0.0311758 0.00701539 0)
(0.0310725 0.00745984 0)
(0.0309628 0.00790278 0)
(0.0308468 0.00834411 0)
(0.0307245 0.00878374 0)
(0.0305959 0.00922157 0)
(0.0304611 0.00965752 0)
(0.0303201 0.0100915 0)
(0.0301729 0.0105234 0)
(0.0300196 0.0109532 0)
(0.0298601 0.0113808 0)
(0.0296946 0.011806 0)
(0.029523 0.0122288 0)
(0.0293453 0.0126491 0)
(0.0291617 0.0130669 0)
(0.0289722 0.013482 0)
(0.0287767 0.0138943 0)
(0.0285753 0.0143038 0)
(0.0283682 0.0147104 0)
(0.0281552 0.015114 0)
(0.0279365 0.0155145 0)
(0.0277122 0.0159118 0)
(0.0274821 0.0163059 0)
(0.0272465 0.0166967 0)
(0.0270053 0.017084 0)
(0.0267586 0.0174679 0)
(0.0265064 0.0178482 0)
(0.0262488 0.0182249 0)
(0.0259859 0.0185979 0)
(0.0257177 0.018967 0)
(0.0254442 0.0193323 0)
(0.0251656 0.0196937 0)
(0.0248818 0.020051 0)
(0.024593 0.0204043 0)
(0.0242991 0.0207534 0)
(0.0240003 0.0210982 0)
(0.0236965 0.0214388 0)
(0.023388 0.021775 0)
(0.0230747 0.0221067 0)
(0.0227567 0.022434 0)
(0.022434 0.0227567 0)
(0.0221067 0.0230747 0)
(0.021775 0.023388 0)
(0.0214388 0.0236965 0)
(0.0210982 0.0240003 0)
(0.0207534 0.0242991 0)
(0.0204043 0.024593 0)
(0.020051 0.0248818 0)
(0.0196937 0.0251656 0)
(0.0193323 0.0254442 0)
(0.018967 0.0257177 0)
(0.0185979 0.0259859 0)
(0.0182249 0.0262488 0)
(0.0178482 0.0265064 0)
(0.0174679 0.0267586 0)
(0.017084 0.0270053 0)
(0.0166967 0.0272465 0)
(0.0163059 0.0274821 0)
(0.0159118 0.0277122 0)
(0.0155145 0.0279365 0)
(0.015114 0.0281552 0)
(0.0147104 0.0283682 0)
(0.0143038 0.0285753 0)
(0.0138943 0.0287767 0)
(0.013482 0.0289722 0)
(0.0130669 0.0291617 0)
(0.0126491 0.0293453 0)
(0.0122288 0.029523 0)
(0.011806 0.0296946 0)
(0.0113808 0.0298601 0)
(0.0109532 0.0300196 0)
(0.0105234 0.0301729 0)
(0.0100915 0.0303201 0)
(0.00965752 0.0304611 0)
(0.00922157 0.0305959 0)
(0.00878374 0.0307245 0)
(0.00834411 0.0308468 0)
(0.00790278 0.0309628 0)
(0.00745984 0.0310725 0)
(0.00701539 0.0311758 0)
(0.00656949 0.0312728 0)
(0.00612227 0.0313635 0)
(0.00567379 0.0314477 0)
(0.00522415 0.0315255 0)
(0.00477345 0.0315969 0)
(0.00432178 0.0316618 0)
(0.00386922 0.0317203 0)
(0.00341588 0.0317723 0)
(0.00296184 0.0318179 0)
(0.00250719 0.0318569 0)
(0.00205204 0.0318895 0)
(0.00159646 0.0319155 0)
(0.00114056 0.0319351 0)
(0.000684431 0.0319481 0)
(0.000228159 0.0319546 0)
(0.0317456 0.000226667 0)
(0.0317391 0.000679955 0)
(0.0317262 0.0011331 0)
(0.0317068 0.00158602 0)
(0.0316809 0.00203862 0)
(0.0316486 0.00249079 0)
(0.0316098 0.00294247 0)
(0.0315645 0.00339354 0)
(0.0315128 0.00384392 0)
(0.0314547 0.00429351 0)
(0.0313902 0.00474223 0)
(0.0313193 0.00518998 0)
(0.031242 0.00563668 0)
(0.0311583 0.00608222 0)
(0.0310683 0.00652653 0)
(0.0309719 0.0069695 0)
(0.0308693 0.00741105 0)
(0.0307603 0.00785109 0)
(0.030645 0.00828953 0)
(0.0305235 0.00872629 0)
(0.0303958 0.00916126 0)
(0.0302619 0.00959436 0)
(0.0301218 0.0100255 0)
(0.0299756 0.0104546 0)
(0.0298232 0.0108816 0)
(0.0296648 0.0113063 0)
(0.0295004 0.0117288 0)
(0.0293299 0.0121488 0)
(0.0291534 0.0125664 0)
(0.028971 0.0129814 0)
(0.0287827 0.0133938 0)
(0.0285885 0.0138034 0)
(0.0283884 0.0142102 0)
(0.0281826 0.0146142 0)
(0.0279711 0.0150151 0)
(0.0277538 0.015413 0)
(0.0275309 0.0158077 0)
(0.0273024 0.0161992 0)
(0.0270683 0.0165875 0)
(0.0268286 0.0169723 0)
(0.0265836 0.0173537 0)
(0.026333 0.0177315 0)
(0.0260772 0.0181057 0)
(0.025816 0.0184762 0)
(0.0255495 0.018843 0)
(0.0252778 0.0192059 0)
(0.025001 0.0195649 0)
(0.0247191 0.0199199 0)
(0.0244321 0.0202708 0)
(0.0241402 0.0206176 0)
(0.0238433 0.0209603 0)
(0.0235416 0.0212986 0)
(0.023235 0.0216326 0)
(0.0229238 0.0219622 0)
(0.0226078 0.0222873 0)
(0.0222873 0.0226078 0)
(0.0219622 0.0229238 0)
(0.0216326 0.023235 0)
(0.0212986 0.0235416 0)
(0.0209603 0.0238433 0)
(0.0206176 0.0241402 0)
(0.0202708 0.0244321 0)
(0.0199199 0.0247191 0)
(0.0195649 0.025001 0)
(0.0192059 0.0252778 0)
(0.018843 0.0255495 0)
(0.0184762 0.025816 0)
(0.0181057 0.0260772 0)
(0.0177315 0.026333 0)
(0.0173537 0.0265836 0)
(0.0169723 0.0268286 0)
(0.0165875 0.0270683 0)
(0.0161992 0.0273024 0)
(0.0158077 0.0275309 0)
(0.015413 0.0277538 0)
(0.0150151 0.0279711 0)
(0.0146142 0.0281826 0)
(0.0142102 0.0283884 0)
(0.0138034 0.0285885 0)
(0.0133938 0.0287827 0)
(0.0129814 0.028971 0)
(0.0125664 0.0291534 0)
(0.0121488 0.0293299 0)
(0.0117288 0.0295004 0)
(0.0113063 0.0296648 0)
(0.0108816 0.0298232 0)
(0.0104546 0.0299756 0)
(0.0100255 0.0301218 0)
(0.00959436 0.0302619 0)
(0.00916126 0.0303958 0)
(0.00872629 0.0305235 0)
(0.00828953 0.030645 0)
(0.00785109 0.0307603 0)
(0.00741105 0.0308693 0)
(0.0069695 0.0309719 0)
(0.00652653 0.0310683 0)
(0.00608222 0.0311583 0)
(0.00563668 0.031242 0)
(0.00518998 0.0313193 0)
(0.00474223 0.0313902 0)
(0.00429351 0.0314547 0)
(0.00384392 0.0315128 0)
(0.00339354 0.0315645 0)
(0.00294247 0.0316098 0)
(0.00249079 0.0316486 0)
(0.00203862 0.0316809 0)
(0.00158602 0.0317068 0)
(0.0011331 0.0317262 0)
(0.000679955 0.0317391 0)
(0.000226667 0.0317456 0)
(0.0315415 0.00022521 0)
(0.0315351 0.000675583 0)
(0.0315222 0.00112582 0)
(0.0315029 0.00157582 0)
(0.0314772 0.00202551 0)
(0.0314451 0.00247478 0)
(0.0314065 0.00292355 0)
(0.0313616 0.00337172 0)
(0.0313102 0.0038192 0)
(0.0312525 0.00426591 0)
(0.0311884 0.00471174 0)
(0.0311179 0.00515661 0)
(0.0310411 0.00560044 0)
(0.030958 0.00604312 0)
(0.0308686 0.00648457 0)
(0.0307728 0.00692469 0)
(0.0306708 0.00736341 0)
(0.0305625 0.00780062 0)
(0.030448 0.00823624 0)
(0.0303273 0.00867018 0)
(0.0302004 0.00910236 0)
(0.0300673 0.00953267 0)
(0.0299282 0.00996105 0)
(0.0297829 0.0103874 0)
(0.0296315 0.0108116 0)
(0.0294741 0.0112336 0)
(0.0293107 0.0116534 0)
(0.0291413 0.0120707 0)
(0.028966 0.0124856 0)
(0.0287847 0.012898 0)
(0.0285976 0.0133077 0)
(0.0284047 0.0137147 0)
(0.0282059 0.0141189 0)
(0.0280014 0.0145202 0)
(0.0277912 0.0149186 0)
(0.0275754 0.0153139 0)
(0.0273539 0.0157061 0)
(0.0271268 0.0160951 0)
(0.0268942 0.0164808 0)
(0.0266562 0.0168632 0)
(0.0264126 0.0172421 0)
(0.0261637 0.0176175 0)
(0.0259095 0.0179893 0)
(0.02565 0.0183574 0)
(0.0253852 0.0187218 0)
(0.0251153 0.0190824 0)
(0.0248403 0.0194391 0)
(0.0245601 0.0197918 0)
(0.024275 0.0201405 0)
(0.023985 0.0204851 0)
(0.02369 0.0208255 0)
(0.0233902 0.0211617 0)
(0.0230856 0.0214935 0)
(0.0227764 0.021821 0)
(0.0224625 0.022144 0)
(0.022144 0.0224625 0)
(0.021821 0.0227764 0)
(0.0214935 0.0230856 0)
(0.0211617 0.0233902 0)
(0.0208255 0.02369 0)
(0.0204851 0.023985 0)
(0.0201405 0.024275 0)
(0.0197918 0.0245601 0)
(0.0194391 0.0248403 0)
(0.0190824 0.0251153 0)
(0.0187218 0.0253852 0)
(0.0183574 0.02565 0)
(0.0179893 0.0259095 0)
(0.0176175 0.0261637 0)
(0.0172421 0.0264126 0)
(0.0168632 0.0266562 0)
(0.0164808 0.0268942 0)
(0.0160951 0.0271268 0)
(0.0157061 0.0273539 0)
(0.0153139 0.0275754 0)
(0.0149186 0.0277912 0)
(0.0145202 0.0280014 0)
(0.0141189 0.0282059 0)
(0.0137147 0.0284047 0)
(0.0133077 0.0285976 0)
(0.012898 0.0287847 0)
(0.0124856 0.028966 0)
(0.0120707 0.0291413 0)
(0.0116534 0.0293107 0)
(0.0112336 0.0294741 0)
(0.0108116 0.0296315 0)
(0.0103874 0.0297829 0)
(0.00996105 0.0299282 0)
(0.00953267 0.0300673 0)
(0.00910236 0.0302004 0)
(0.00867018 0.0303273 0)
(0.00823624 0.030448 0)
(0.00780062 0.0305625 0)
(0.00736341 0.0306708 0)
(0.00692469 0.0307728 0)
(0.00648457 0.0308686 0)
(0.00604312 0.030958 0)
(0.00560044 0.0310411 0)
(0.00515661 0.0311179 0)
(0.00471174 0.0311884 0)
(0.00426591 0.0312525 0)
(0.0038192 0.0313102 0)
(0.00337172 0.0313616 0)
(0.00292355 0.0314065 0)
(0.00247478 0.0314451 0)
(0.00202551 0.0314772 0)
(0.00157582 0.0315029 0)
(0.00112582 0.0315222 0)
(0.000675583 0.0315351 0)
(0.00022521 0.0315415 0)
(0.0313425 0.000223788 0)
(0.0313361 0.00067132 0)
(0.0313233 0.00111871 0)
(0.0313041 0.00156588 0)
(0.0312786 0.00201273 0)
(0.0312466 0.00245916 0)
(0.0312083 0.0029051 0)
(0.0311637 0.00335044 0)
(0.0311127 0.0037951 0)
(0.0310553 0.00423899 0)
(0.0309916 0.00468201 0)
(0.0309216 0.00512407 0)
(0.0308453 0.0055651 0)
(0.0307626 0.00600498 0)
(0.0306738 0.00644365 0)
(0.0305786 0.00688099 0)
(0.0304772 0.00731694 0)
(0.0303697 0.00775139 0)
(0.0302559 0.00818426 0)
(0.0301359 0.00861547 0)
(0.0300098 0.00904492 0)
(0.0298776 0.00947252 0)
(0.0297393 0.00989819 0)
(0.0295949 0.0103218 0)
(0.0294445 0.0107434 0)
(0.0292881 0.0111627 0)
(0.0291257 0.0115798 0)
(0.0289574 0.0119945 0)
(0.0287832 0.0124068 0)
(0.0286031 0.0128166 0)
(0.0284171 0.0132237 0)
(0.0282254 0.0136281 0)
(0.0280279 0.0140298 0)
(0.0278247 0.0144286 0)
(0.0276159 0.0148244 0)
(0.0274014 0.0152173 0)
(0.0271813 0.015607 0)
(0.0269556 0.0159935 0)
(0.0267245 0.0163768 0)
(0.0264879 0.0167568 0)
(0.026246 0.0171333 0)
(0.0259986 0.0175063 0)
(0.025746 0.0178758 0)
(0.0254881 0.0182416 0)
(0.025225 0.0186037 0)
(0.0249568 0.018962 0)
(0.0246835 0.0193164 0)
(0.0244052 0.0196669 0)
(0.0241218 0.0200134 0)
(0.0238336 0.0203558 0)
(0.0235405 0.0206941 0)
(0.0232426 0.0210281 0)
(0.02294 0.0213579 0)
(0.0226326 0.0216833 0)
(0.0223207 0.0220042 0)
(0.0220042 0.0223207 0)
(0.0216833 0.0226326 0)
(0.0213579 0.02294 0)
(0.0210281 0.0232426 0)
(0.0206941 0.0235405 0)
(0.0203558 0.0238336 0)
(0.0200134 0.0241218 0)
(0.0196669 0.0244052 0)
(0.0193164 0.0246835 0)
(0.018962 0.0249568 0)
(0.0186037 0.025225 0)
(0.0182416 0.0254881 0)
(0.0178758 0.025746 0)
(0.0175063 0.0259986 0)
(0.0171333 0.026246 0)
(0.0167568 0.0264879 0)
(0.0163768 0.0267245 0)
(0.0159935 0.0269556 0)
(0.015607 0.0271813 0)
(0.0152173 0.0274014 0)
(0.0148244 0.0276159 0)
(0.0144286 0.0278247 0)
(0.0140298 0.0280279 0)
(0.0136281 0.0282254 0)
(0.0132237 0.0284171 0)
(0.0128166 0.0286031 0)
(0.0124068 0.0287832 0)
(0.0119945 0.0289574 0)
(0.0115798 0.0291257 0)
(0.0111627 0.0292881 0)
(0.0107434 0.0294445 0)
(0.0103218 0.0295949 0)
(0.00989819 0.0297393 0)
(0.00947252 0.0298776 0)
(0.00904492 0.0300098 0)
(0.00861547 0.0301359 0)
(0.00818426 0.0302559 0)
(0.00775139 0.0303697 0)
(0.00731694 0.0304772 0)
(0.00688099 0.0305786 0)
(0.00644365 0.0306738 0)
(0.00600498 0.0307626 0)
(0.0055651 0.0308453 0)
(0.00512407 0.0309216 0)
(0.00468201 0.0309916 0)
(0.00423899 0.0310553 0)
(0.0037951 0.0311127 0)
(0.00335044 0.0311637 0)
(0.0029051 0.0312083 0)
(0.00245916 0.0312466 0)
(0.00201273 0.0312786 0)
(0.00156588 0.0313041 0)
(0.00111871 0.0313233 0)
(0.00067132 0.0313361 0)
(0.000223788 0.0313425 0)
(0.0311482 0.000222402 0)
(0.0311419 0.000667159 0)
(0.0311292 0.00111178 0)
(0.0311101 0.00155618 0)
(0.0310847 0.00200025 0)
(0.031053 0.00244392 0)
(0.0310149 0.0028871 0)
(0.0309705 0.00332968 0)
(0.0309198 0.00377158 0)
(0.0308628 0.00421272 0)
(0.0307995 0.00465299 0)
(0.0307299 0.00509232 0)
(0.0306541 0.00553061 0)
(0.030572 0.00596777 0)
(0.0304837 0.00640371 0)
(0.0303891 0.00683835 0)
(0.0302884 0.00727159 0)
(0.0301814 0.00770335 0)
(0.0300684 0.00813354 0)
(0.0299492 0.00856208 0)
(0.0298238 0.00898886 0)
(0.0296924 0.00941381 0)
(0.029555 0.00983685 0)
(0.0294115 0.0102579 0)
(0.029262 0.0106768 0)
(0.0291066 0.0110936 0)
(0.0289452 0.0115081 0)
(0.0287779 0.0119202 0)
(0.0286048 0.0123299 0)
(0.0284258 0.0127371 0)
(0.028241 0.0131417 0)
(0.0280505 0.0135437 0)
(0.0278542 0.0139428 0)
(0.0276523 0.0143392 0)
(0.0274447 0.0147326 0)
(0.0272316 0.015123 0)
(0.0270128 0.0155103 0)
(0.0267886 0.0158944 0)
(0.0265589 0.0162753 0)
(0.0263238 0.0166529 0)
(0.0260833 0.0170271 0)
(0.0258375 0.0173978 0)
(0.0255864 0.017765 0)
(0.0253302 0.0181285 0)
(0.0250687 0.0184884 0)
(0.0248022 0.0188445 0)
(0.0245305 0.0191967 0)
(0.0242539 0.019545 0)
(0.0239724 0.0198894 0)
(0.0236859 0.0202297 0)
(0.0233946 0.0205658 0)
(0.0230986 0.0208978 0)
(0.0227978 0.0212255 0)
(0.0224924 0.0215489 0)
(0.0221824 0.0218679 0)
(0.0218679 0.0221824 0)
(0.0215489 0.0224924 0)
(0.0212255 0.0227978 0)
(0.0208978 0.0230986 0)
(0.0205658 0.0233946 0)
(0.0202297 0.0236859 0)
(0.0198894 0.0239724 0)
(0.019545 0.0242539 0)
(0.0191967 0.0245305 0)
(0.0188445 0.0248022 0)
(0.0184884 0.0250687 0)
(0.0181285 0.0253302 0)
(0.017765 0.0255864 0)
(0.0173978 0.0258375 0)
(0.0170271 0.0260833 0)
(0.0166529 0.0263238 0)
(0.0162753 0.0265589 0)
(0.0158944 0.0267886 0)
(0.0155103 0.0270128 0)
(0.015123 0.0272316 0)
(0.0147326 0.0274447 0)
(0.0143392 0.0276523 0)
(0.0139428 0.0278542 0)
(0.0135437 0.0280505 0)
(0.0131417 0.028241 0)
(0.0127371 0.0284258 0)
(0.0123299 0.0286048 0)
(0.0119202 0.0287779 0)
(0.0115081 0.0289452 0)
(0.0110936 0.0291066 0)
(0.0106768 0.029262 0)
(0.0102579 0.0294115 0)
(0.00983685 0.029555 0)
(0.00941381 0.0296924 0)
(0.00898886 0.0298238 0)
(0.00856208 0.0299492 0)
(0.00813354 0.0300684 0)
(0.00770335 0.0301814 0)
(0.00727159 0.0302884 0)
(0.00683835 0.0303891 0)
(0.00640371 0.0304837 0)
(0.00596777 0.030572 0)
(0.00553061 0.0306541 0)
(0.00509232 0.0307299 0)
(0.00465299 0.0307995 0)
(0.00421272 0.0308628 0)
(0.00377158 0.0309198 0)
(0.00332968 0.0309705 0)
(0.0028871 0.0310149 0)
(0.00244392 0.031053 0)
(0.00200025 0.0310847 0)
(0.00155618 0.0311101 0)
(0.00111178 0.0311292 0)
(0.000667159 0.0311419 0)
(0.000222402 0.0311482 0)
(0.0309588 0.000221049 0)
(0.0309524 0.000663101 0)
(0.0309398 0.00110502 0)
(0.0309209 0.00154671 0)
(0.0308957 0.00198809 0)
(0.0308641 0.00242906 0)
(0.0308263 0.00286953 0)
(0.0307822 0.00330942 0)
(0.0307318 0.00374864 0)
(0.0306751 0.00418709 0)
(0.0306122 0.00462469 0)
(0.030543 0.00506134 0)
(0.0304676 0.00549697 0)
(0.030386 0.00593147 0)
(0.0302982 0.00636476 0)
(0.0302043 0.00679676 0)
(0.0301041 0.00722736 0)
(0.0299979 0.0076565 0)
(0.0298855 0.00808407 0)
(0.029767 0.00851 0)
(0.0296424 0.00893419 0)
(0.0295118 0.00935655 0)
(0.0293752 0.00977701 0)
(0.0292326 0.0101955 0)
(0.0290841 0.0106119 0)
(0.0289296 0.0110261 0)
(0.0287692 0.0114381 0)
(0.0286029 0.0118477 0)
(0.0284308 0.0122549 0)
(0.0282529 0.0126597 0)
(0.0280693 0.0130618 0)
(0.0278799 0.0134613 0)
(0.0276848 0.013858 0)
(0.0274841 0.0142519 0)
(0.0272778 0.0146429 0)
(0.0270659 0.015031 0)
(0.0268485 0.0154159 0)
(0.0266257 0.0157977 0)
(0.0263974 0.0161763 0)
(0.0261637 0.0165516 0)
(0.0259247 0.0169235 0)
(0.0256804 0.017292 0)
(0.0254308 0.0176569 0)
(0.0251761 0.0180183 0)
(0.0249162 0.0183759 0)
(0.0246513 0.0187299 0)
(0.0243813 0.01908 0)
(0.0241064 0.0194262 0)
(0.0238265 0.0197684 0)
(0.0235418 0.0201066 0)
(0.0232523 0.0204407 0)
(0.0229581 0.0207707 0)
(0.0226591 0.0210964 0)
(0.0223556 0.0214178 0)
(0.0220475 0.0217348 0)
(0.0217348 0.0220475 0)
(0.0214178 0.0223556 0)
(0.0210964 0.0226591 0)
(0.0207707 0.0229581 0)
(0.0204407 0.0232523 0)
(0.0201066 0.0235418 0)
(0.0197684 0.0238265 0)
(0.0194262 0.0241064 0)
(0.01908 0.0243813 0)
(0.0187299 0.0246513 0)
(0.0183759 0.0249162 0)
(0.0180183 0.0251761 0)
(0.0176569 0.0254308 0)
(0.017292 0.0256804 0)
(0.0169235 0.0259247 0)
(0.0165516 0.0261637 0)
(0.0161763 0.0263974 0)
(0.0157977 0.0266257 0)
(0.0154159 0.0268485 0)
(0.015031 0.0270659 0)
(0.0146429 0.0272778 0)
(0.0142519 0.0274841 0)
(0.013858 0.0276848 0)
(0.0134613 0.0278799 0)
(0.0130618 0.0280693 0)
(0.0126597 0.0282529 0)
(0.0122549 0.0284308 0)
(0.0118477 0.0286029 0)
(0.0114381 0.0287692 0)
(0.0110261 0.0289296 0)
(0.0106119 0.0290841 0)
(0.0101955 0.0292326 0)
(0.00977701 0.0293752 0)
(0.00935655 0.0295118 0)
(0.00893419 0.0296424 0)
(0.00851 0.029767 0)
(0.00808407 0.0298855 0)
(0.0076565 0.0299979 0)
(0.00722736 0.0301041 0)
(0.00679676 0.0302043 0)
(0.00636476 0.0302982 0)
(0.00593147 0.030386 0)
(0.00549697 0.0304676 0)
(0.00506134 0.030543 0)
(0.00462469 0.0306122 0)
(0.00418709 0.0306751 0)