/*--------------------------------*- C++ -*----------------------------------*\
| =========                 |                                                 |
| \\      /  F ield         | OpenFOAM: The Open Source CFD Toolbox           |
|  \\    /   O peration     | Version:  2312                                  |
|   \\  /    A nd           | Website:  www.openfoam.com                      |
|    \\/     M anipulation  |                                                 |
\*---------------------------------------------------------------------------*/
FoamFile
{
    version     2.0;
    format      ascii;
    arch        "LSB;label=32;scalar=64";
    class       volVectorField;
    location    "40";
    object      D_0_0;
}
// * * * * * * * * * * * * * * * * * * * * * * * * * * * * * * * * * * * * * //

dimensions      [0 1 0 0 0 0 0];

internalField   nonuniform List<vector> 
12870
(
(0.527822 0.0037687 0)
(0.527714 0.0113053 0)
(0.527499 0.0188397 0)
(0.527176 0.0263701 0)
(0.526746 0.0338953 0)
(0.526208 0.0414135 0)
(0.525563 0.0489232 0)
(0.524811 0.056423 0)
(0.523951 0.0639113 0)
(0.522985 0.0713865 0)
(0.521913 0.0788472 0)
(0.520734 0.0862918 0)
(0.519448 0.0937188 0)
(0.518057 0.101127 0)
(0.51656 0.108514 0)
(0.514958 0.115879 0)
(0.513251 0.123221 0)
(0.511439 0.130537 0)
(0.509523 0.137827 0)
(0.507503 0.145088 0)
(0.505379 0.152321 0)
(0.503153 0.159522 0)
(0.500824 0.16669 0)
(0.498392 0.173825 0)
(0.495859 0.180924 0)
(0.493225 0.187986 0)
(0.490491 0.19501 0)
(0.487656 0.201994 0)
(0.484722 0.208937 0)
(0.481689 0.215837 0)
(0.478558 0.222693 0)
(0.475329 0.229504 0)
(0.472003 0.236268 0)
(0.468581 0.242984 0)
(0.465064 0.24965 0)
(0.461452 0.256266 0)
(0.457745 0.262829 0)
(0.453946 0.269338 0)
(0.450053 0.275793 0)
(0.446069 0.282191 0)
(0.441994 0.288532 0)
(0.437829 0.294814 0)
(0.433575 0.301036 0)
(0.429232 0.307197 0)
(0.424801 0.313295 0)
(0.420284 0.319329 0)
(0.415682 0.325298 0)
(0.410994 0.3312 0)
(0.406223 0.337035 0)
(0.401369 0.342801 0)
(0.396433 0.348498 0)
(0.391416 0.354123 0)
(0.38632 0.359676 0)
(0.381144 0.365156 0)
(0.375891 0.370561 0)
(0.370561 0.375891 0)
(0.365156 0.381144 0)
(0.359676 0.38632 0)
(0.354123 0.391416 0)
(0.348498 0.396433 0)
(0.342801 0.401369 0)
(0.337035 0.406223 0)
(0.3312 0.410994 0)
(0.325298 0.415682 0)
(0.319329 0.420284 0)
(0.313295 0.424801 0)
(0.307197 0.429232 0)
(0.301036 0.433575 0)
(0.294814 0.437829 0)
(0.288532 0.441994 0)
(0.282191 0.446069 0)
(0.275793 0.450053 0)
(0.269338 0.453946 0)
(0.262829 0.457745 0)
(0.256266 0.461452 0)
(0.24965 0.465064 0)
(0.242984 0.468581 0)
(0.236268 0.472003 0)
(0.229504 0.475329 0)
(0.222693 0.478558 0)
(0.215837 0.481689 0)
(0.208937 0.484722 0)
(0.201994 0.487656 0)
(0.19501 0.490491 0)
(0.187986 0.493225 0)
(0.180924 0.495859 0)
(0.173825 0.498392 0)
(0.16669 0.500824 0)
(0.159522 0.503153 0)
(0.152321 0.505379 0)
(0.145088 0.507503 0)
(0.137827 0.509523 0)
(0.130537 0.511439 0)
(0.123221 0.513251 0)
(0.115879 0.514958 0)
(0.108514 0.51656 0)
(0.101127 0.518057 0)
(0.0937188 0.519448 0)
(0.0862918 0.520734 0)
(0.0788472 0.521913 0)
(0.0713865 0.522985 0)
(0.0639113 0.523951 0)
(0.056423 0.524811 0)
(0.0489232 0.525563 0)
(0.0414135 0.526208 0)
(0.0338953 0.526746 0)
(0.0263701 0.527176 0)
(0.0188397 0.527499 0)
(0.0113053 0.527714 0)
(0.0037687 0.527822 0)
(0.523105 0.00373503 0)
(0.522998 0.0112043 0)
(0.522785 0.0186713 0)
(0.522465 0.0261345 0)
(0.522039 0.0335924 0)
(0.521506 0.0410434 0)
(0.520867 0.048486 0)
(0.520121 0.0559188 0)
(0.51927 0.0633402 0)
(0.518312 0.0707486 0)
(0.517249 0.0781426 0)
(0.516081 0.0855207 0)
(0.514807 0.0928813 0)
(0.513428 0.100223 0)
(0.511944 0.107544 0)
(0.510357 0.114844 0)
(0.508665 0.12212 0)
(0.506869 0.129371 0)
(0.50497 0.136595 0)
(0.502968 0.143792 0)
(0.500863 0.150959 0)
(0.498657 0.158096 0)
(0.496348 0.165201 0)
(0.493939 0.172271 0)
(0.491428 0.179307 0)
(0.488818 0.186306 0)
(0.486108 0.193267 0)
(0.483298 0.200189 0)
(0.480391 0.20707 0)
(0.477385 0.213908 0)
(0.474282 0.220703 0)
(0.471082 0.227453 0)
(0.467786 0.234157 0)
(0.464394 0.240813 0)
(0.460908 0.247419 0)
(0.457328 0.253976 0)
(0.453655 0.26048 0)
(0.449889 0.266932 0)
(0.446032 0.273329 0)
(0.442083 0.27967 0)
(0.438045 0.285954 0)
(0.433917 0.29218 0)
(0.4297 0.298346 0)
(0.425396 0.304452 0)
(0.421006 0.310495 0)
(0.416529 0.316475 0)
(0.411967 0.322391 0)
(0.407322 0.328241 0)
(0.402593 0.334023 0)
(0.397782 0.339738 0)
(0.392891 0.345384 0)
(0.387919 0.350959 0)
(0.382868 0.356462 0)
(0.377738 0.361893 0)
(0.372532 0.36725 0)
(0.36725 0.372532 0)
(0.361893 0.377738 0)
(0.356462 0.382868 0)
(0.350959 0.387919 0)
(0.345384 0.392891 0)
(0.339738 0.397782 0)
(0.334023 0.402593 0)
(0.328241 0.407322 0)
(0.322391 0.411967 0)
(0.316475 0.416529 0)
(0.310495 0.421006 0)
(0.304452 0.425396 0)
(0.298346 0.4297 0)
(0.29218 0.433917 0)
(0.285954 0.438045 0)
(0.27967 0.442083 0)
(0.273329 0.446032 0)
(0.266932 0.449889 0)
(0.26048 0.453655 0)
(0.253976 0.457328 0)
(0.247419 0.460908 0)
(0.240813 0.464394 0)
(0.234157 0.467786 0)
(0.227453 0.471082 0)
(0.220703 0.474282 0)
(0.213908 0.477385 0)
(0.20707 0.480391 0)
(0.200189 0.483298 0)
(0.193267 0.486108 0)
(0.186306 0.488818 0)
(0.179307 0.491428 0)
(0.172271 0.493939 0)
(0.165201 0.496348 0)
(0.158096 0.498657 0)
(0.150959 0.500863 0)
(0.143792 0.502968 0)
(0.136595 0.50497 0)
(0.129371 0.506869 0)
(0.12212 0.508665 0)
(0.114844 0.510357 0)
(0.107544 0.511944 0)
(0.100223 0.513428 0)
(0.0928813 0.514807 0)
(0.0855207 0.516081 0)
(0.0781426 0.517249 0)
(0.0707486 0.518312 0)
(0.0633402 0.51927 0)
(0.0559188 0.520121 0)
(0.048486 0.520867 0)
(0.0410434 0.521506 0)
(0.0335924 0.522039 0)
(0.0261345 0.522465 0)
(0.0186713 0.522785 0)
(0.0112043 0.522998 0)
(0.00373503 0.523105 0)
(0.518607 0.00370291 0)
(0.518501 0.011108 0)
(0.51829 0.0185108 0)
(0.517973 0.0259098 0)
(0.51755 0.0333035 0)
(0.517022 0.0406905 0)
(0.516388 0.0480691 0)
(0.515649 0.055438 0)
(0.514805 0.0627955 0)
(0.513856 0.0701403 0)
(0.512802 0.0774707 0)
(0.511643 0.0847854 0)
(0.51038 0.0920827 0)
(0.509013 0.0993613 0)
(0.507543 0.10662 0)
(0.505968 0.113856 0)
(0.504291 0.12107 0)
(0.502511 0.128258 0)
(0.500628 0.135421 0)
(0.498643 0.142556 0)
(0.496557 0.149661 0)
(0.494369 0.156737 0)
(0.492081 0.16378 0)
(0.489692 0.17079 0)
(0.487203 0.177765 0)
(0.484615 0.184704 0)
(0.481928 0.191605 0)
(0.479143 0.198467 0)
(0.47626 0.205289 0)
(0.47328 0.212069 0)
(0.470203 0.218806 0)
(0.467031 0.225497 0)
(0.463764 0.232143 0)
(0.460401 0.238742 0)
(0.456945 0.245292 0)
(0.453396 0.251792 0)
(0.449754 0.258241 0)
(0.446021 0.264636 0)
(0.442197 0.270978 0)
(0.438282 0.277265 0)
(0.434278 0.283495 0)
(0.430186 0.289668 0)
(0.426006 0.295781 0)
(0.421739 0.301834 0)
(0.417386 0.307825 0)
(0.412947 0.313754 0)
(0.408425 0.319619 0)
(0.403819 0.325418 0)
(0.399131 0.331151 0)
(0.394362 0.336817 0)
(0.389512 0.342414 0)
(0.384583 0.347941 0)
(0.379575 0.353397 0)
(0.37449 0.358781 0)
(0.369329 0.364092 0)
(0.364092 0.369329 0)
(0.358781 0.37449 0)
(0.353397 0.379575 0)
(0.347941 0.384583 0)
(0.342414 0.389512 0)
(0.336817 0.394362 0)
(0.331151 0.399131 0)
(0.325418 0.403819 0)
(0.319619 0.408425 0)
(0.313754 0.412947 0)
(0.307825 0.417386 0)
(0.301834 0.421739 0)
(0.295781 0.426006 0)
(0.289668 0.430186 0)
(0.283495 0.434278 0)
(0.277265 0.438282 0)
(0.270978 0.442197 0)
(0.264636 0.446021 0)
(0.258241 0.449754 0)
(0.251792 0.453396 0)
(0.245292 0.456945 0)
(0.238742 0.460401 0)
(0.232143 0.463764 0)
(0.225497 0.467031 0)
(0.218806 0.470203 0)
(0.212069 0.47328 0)
(0.205289 0.47626 0)
(0.198467 0.479143 0)
(0.191605 0.481928 0)
(0.184704 0.484615 0)
(0.177765 0.487203 0)
(0.17079 0.489692 0)
(0.16378 0.492081 0)
(0.156737 0.494369 0)
(0.149661 0.496557 0)
(0.142556 0.498643 0)
(0.135421 0.500628 0)
(0.128258 0.502511 0)
(0.12107 0.504291 0)
(0.113856 0.505968 0)
(0.10662 0.507543 0)
(0.0993613 0.509013 0)
(0.0920827 0.51038 0)
(0.0847854 0.511643 0)
(0.0774707 0.512802 0)
(0.0701403 0.513856 0)
(0.0627955 0.514805 0)
(0.055438 0.515649 0)
(0.0480691 0.516388 0)
(0.0406905 0.517022 0)
(0.0333035 0.51755 0)
(0.0259098 0.517973 0)
(0.0185108 0.51829 0)
(0.011108 0.518501 0)
(0.00370291 0.518607 0)
(0.514204 0.00367147 0)
(0.514099 0.0110137 0)
(0.513889 0.0183536 0)
(0.513575 0.0256898 0)
(0.513155 0.0330208 0)
(0.512632 0.040345 0)
(0.512003 0.047661 0)
(0.51127 0.0549673 0)
(0.510433 0.0622623 0)
(0.509492 0.0695447 0)
(0.508447 0.0768129 0)
(0.507299 0.0840654 0)
(0.506046 0.0913008 0)
(0.504691 0.0985176 0)
(0.503233 0.105714 0)
(0.501672 0.112889 0)
(0.500009 0.120042 0)
(0.498244 0.127169 0)
(0.496377 0.134271 0)
(0.494409 0.141345 0)
(0.49234 0.148391 0)
(0.490171 0.155406 0)
(0.487902 0.162389 0)
(0.485534 0.16934 0)
(0.483066 0.176256 0)
(0.4805 0.183136 0)
(0.477836 0.189978 0)
(0.475074 0.196782 0)
(0.472216 0.203546 0)
(0.469261 0.210268 0)
(0.466211 0.216948 0)
(0.463065 0.223583 0)
(0.459826 0.230172 0)
(0.456492 0.236715 0)
(0.453065 0.243209 0)
(0.449546 0.249654 0)
(0.445935 0.256048 0)
(0.442234 0.262389 0)
(0.438442 0.268678 0)
(0.434561 0.274911 0)
(0.430591 0.281088 0)
(0.426533 0.287208 0)
(0.422388 0.293269 0)
(0.418158 0.299271 0)
(0.413841 0.305212 0)
(0.409441 0.31109 0)
(0.404957 0.316905 0)
(0.400391 0.322655 0)
(0.395742 0.32834 0)
(0.391014 0.333957 0)
(0.386205 0.339507 0)
(0.381318 0.344987 0)
(0.376352 0.350397 0)
(0.371311 0.355735 0)
(0.366193 0.361001 0)
(0.361001 0.366193 0)
(0.355735 0.371311 0)
(0.350397 0.376352 0)
(0.344987 0.381318 0)
(0.339507 0.386205 0)
(0.333957 0.391014 0)
(0.32834 0.395742 0)
(0.322655 0.400391 0)
(0.316905 0.404957 0)
(0.31109 0.409441 0)
(0.305212 0.413841 0)
(0.299271 0.418158 0)
(0.293269 0.422388 0)
(0.287208 0.426533 0)
(0.281088 0.430591 0)
(0.274911 0.434561 0)
(0.268678 0.438442 0)
(0.262389 0.442234 0)
(0.256048 0.445935 0)
(0.249654 0.449546 0)
(0.243209 0.453065 0)
(0.236715 0.456492 0)
(0.230172 0.459826 0)
(0.223583 0.463065 0)
(0.216948 0.466211 0)
(0.210268 0.469261 0)
(0.203546 0.472216 0)
(0.196782 0.475074 0)
(0.189978 0.477836 0)
(0.183136 0.4805 0)
(0.176256 0.483066 0)
(0.16934 0.485534 0)
(0.162389 0.487902 0)
(0.155406 0.490171 0)
(0.148391 0.49234 0)
(0.141345 0.494409 0)
(0.134271 0.496377 0)
(0.127169 0.498244 0)
(0.120042 0.500009 0)
(0.112889 0.501672 0)
(0.105714 0.503233 0)
(0.0985176 0.504691 0)
(0.0913008 0.506046 0)
(0.0840654 0.507299 0)
(0.0768129 0.508447 0)
(0.0695447 0.509492 0)
(0.0622623 0.510433 0)
(0.0549673 0.51127 0)
(0.047661 0.512003 0)
(0.040345 0.512632 0)
(0.0330208 0.513155 0)
(0.0256898 0.513575 0)
(0.0183536 0.513889 0)
(0.0110137 0.514099 0)
(0.00367147 0.514204 0)
(0.509953 0.00364112 0)
(0.509849 0.0109226 0)
(0.509641 0.0182019 0)
(0.509329 0.0254774 0)
(0.508914 0.0327478 0)
(0.508394 0.0400115 0)
(0.507771 0.047267 0)
(0.507044 0.0545129 0)
(0.506214 0.0617477 0)
(0.505281 0.0689698 0)
(0.504244 0.076178 0)
(0.503105 0.0833705 0)
(0.501863 0.0905461 0)
(0.500519 0.0977032 0)
(0.499073 0.10484 0)
(0.497525 0.111956 0)
(0.495876 0.119049 0)
(0.494125 0.126118 0)
(0.492274 0.133161 0)
(0.490322 0.140177 0)
(0.488271 0.147164 0)
(0.486119 0.154121 0)
(0.483869 0.161047 0)
(0.48152 0.16794 0)
(0.479073 0.174799 0)
(0.476528 0.181622 0)
(0.473886 0.188408 0)
(0.471147 0.195156 0)
(0.468312 0.201863 0)
(0.465382 0.20853 0)
(0.462357 0.215154 0)
(0.459238 0.221735 0)
(0.456025 0.22827 0)
(0.452719 0.234758 0)
(0.44932 0.241199 0)
(0.44583 0.24759 0)
(0.442249 0.253931 0)
(0.438578 0.26022 0)
(0.434818 0.266457 0)
(0.430968 0.272638 0)
(0.427031 0.278765 0)
(0.423007 0.284834 0)
(0.418897 0.290845 0)
(0.414701 0.296797 0)
(0.410421 0.302689 0)
(0.406056 0.308518 0)
(0.40161 0.314285 0)
(0.397081 0.319988 0)
(0.392471 0.325625 0)
(0.387781 0.331196 0)
(0.383012 0.3367 0)
(0.378165 0.342135 0)
(0.373241 0.3475 0)
(0.368241 0.352794 0)
(0.363166 0.358017 0)
(0.358017 0.363166 0)
(0.352794 0.368241 0)
(0.3475 0.373241 0)
(0.342135 0.378165 0)
(0.3367 0.383012 0)
(0.331196 0.387781 0)
(0.325625 0.392471 0)
(0.319988 0.397081 0)
(0.314285 0.40161 0)
(0.308518 0.406056 0)
(0.302689 0.410421 0)
(0.296797 0.414701 0)
(0.290845 0.418897 0)
(0.284834 0.423007 0)
(0.278765 0.427031 0)
(0.272638 0.430968 0)
(0.266457 0.434818 0)
(0.26022 0.438578 0)
(0.253931 0.442249 0)
(0.24759 0.44583 0)
(0.241199 0.44932 0)
(0.234758 0.452719 0)
(0.22827 0.456025 0)
(0.221735 0.459238 0)
(0.215154 0.462357 0)
(0.20853 0.465382 0)
(0.201863 0.468312 0)
(0.195156 0.471147 0)
(0.188408 0.473886 0)
(0.181622 0.476528 0)
(0.174799 0.479073 0)
(0.16794 0.48152 0)
(0.161047 0.483869 0)
(0.154121 0.486119 0)
(0.147164 0.488271 0)
(0.140177 0.490322 0)
(0.133161 0.492274 0)
(0.126118 0.494125 0)
(0.119049 0.495876 0)
(0.111956 0.497525 0)
(0.10484 0.499073 0)
(0.0977032 0.500519 0)
(0.0905461 0.501863 0)
(0.0833705 0.503105 0)
(0.076178 0.504244 0)
(0.0689698 0.505281 0)
(0.0617477 0.506214 0)
(0.0545129 0.507044 0)
(0.047267 0.507771 0)
(0.0400115 0.508394 0)
(0.0327478 0.508914 0)
(0.0254774 0.509329 0)
(0.0182019 0.509641 0)
(0.0109226 0.509849 0)
(0.00364112 0.509953 0)
(0.505817 0.00361159 0)
(0.505714 0.010834 0)
(0.505508 0.0180543 0)
(0.505199 0.0252708 0)
(0.504786 0.0324822 0)
(0.504271 0.039687 0)
(0.503653 0.0468837 0)
(0.502932 0.0540708 0)
(0.502109 0.0612469 0)
(0.501183 0.0684105 0)
(0.500155 0.0755602 0)
(0.499025 0.0826944 0)
(0.497793 0.0898118 0)
(0.49646 0.0969109 0)
(0.495026 0.10399 0)
(0.49349 0.111048 0)
(0.491854 0.118084 0)
(0.490118 0.125095 0)
(0.488282 0.132081 0)
(0.486346 0.13904 0)
(0.484311 0.145971 0)
(0.482177 0.152871 0)
(0.479945 0.159741 0)
(0.477615 0.166578 0)
(0.475188 0.173381 0)
(0.472663 0.180149 0)
(0.470043 0.18688 0)
(0.467326 0.193573 0)
(0.464515 0.200226 0)
(0.461608 0.206839 0)
(0.458607 0.213409 0)
(0.455513 0.219936 0)
(0.452326 0.226418 0)
(0.449047 0.232854 0)
(0.445676 0.239243 0)
(0.442215 0.245582 0)
(0.438663 0.251872 0)
(0.435021 0.25811 0)
(0.431291 0.264296 0)
(0.427473 0.270427 0)
(0.423568 0.276504 0)
(0.419577 0.282524 0)
(0.4155 0.288487 0)
(0.411338 0.29439 0)
(0.407092 0.300234 0)
(0.402763 0.306016 0)
(0.398353 0.311736 0)
(0.393861 0.317393 0)
(0.389288 0.322985 0)
(0.384636 0.328511 0)
(0.379906 0.333969 0)
(0.375099 0.33936 0)
(0.370214 0.344682 0)
(0.365255 0.349933 0)
(0.360221 0.355113 0)
(0.355113 0.360221 0)
(0.349933 0.365255 0)
(0.344682 0.370214 0)
(0.33936 0.375099 0)
(0.333969 0.379906 0)
(0.328511 0.384636 0)
(0.322985 0.389288 0)
(0.317393 0.393861 0)
(0.311736 0.398353 0)
(0.306016 0.402763 0)
(0.300234 0.407092 0)
(0.29439 0.411338 0)
(0.288487 0.4155 0)
(0.282524 0.419577 0)
(0.276504 0.423568 0)
(0.270427 0.427473 0)
(0.264296 0.431291 0)
(0.25811 0.435021 0)
(0.251872 0.438663 0)
(0.245582 0.442215 0)
(0.239243 0.445676 0)
(0.232854 0.449047 0)
(0.226418 0.452326 0)
(0.219936 0.455513 0)
(0.213409 0.458607 0)
(0.206839 0.461608 0)
(0.200226 0.464515 0)
(0.193573 0.467326 0)
(0.18688 0.470043 0)
(0.180149 0.472663 0)
(0.173381 0.475188 0)
(0.166578 0.477615 0)
(0.159741 0.479945 0)
(0.152871 0.482177 0)
(0.145971 0.484311 0)
(0.13904 0.486346 0)
(0.132081 0.488282 0)
(0.125095 0.490118 0)
(0.118084 0.491854 0)
(0.111048 0.49349 0)
(0.10399 0.495026 0)
(0.0969109 0.49646 0)
(0.0898118 0.497793 0)
(0.0826944 0.499025 0)
(0.0755602 0.500155 0)
(0.0684105 0.501183 0)
(0.0612469 0.502109 0)
(0.0540708 0.502932 0)
(0.0468837 0.503653 0)
(0.039687 0.504271 0)
(0.0324822 0.504786 0)
(0.0252708 0.505199 0)
(0.0180543 0.505508 0)
(0.010834 0.505714 0)
(0.00361159 0.505817 0)
(0.50181 0.00358298 0)
(0.501708 0.0107482 0)
(0.501503 0.0179112 0)
(0.501196 0.0250706 0)
(0.500787 0.0322249 0)
(0.500276 0.0393726 0)
(0.499663 0.0465123 0)
(0.498948 0.0536424 0)
(0.498131 0.0607617 0)
(0.497213 0.0678685 0)
(0.496193 0.0749616 0)
(0.495072 0.0820393 0)
(0.49385 0.0891003 0)
(0.492527 0.0961431 0)
(0.491104 0.103166 0)
(0.489581 0.110169 0)
(0.487958 0.117148 0)
(0.486235 0.124104 0)
(0.484413 0.131035 0)
(0.482493 0.137938 0)
(0.480474 0.144814 0)
(0.478357 0.15166 0)
(0.476143 0.158476 0)
(0.473831 0.165258 0)
(0.471423 0.172008 0)
(0.468919 0.178722 0)
(0.466319 0.1854 0)
(0.463624 0.192039 0)
(0.460835 0.19864 0)
(0.457951 0.2052 0)
(0.454974 0.211719 0)
(0.451905 0.218194 0)
(0.448743 0.224625 0)
(0.44549 0.23101 0)
(0.442146 0.237347 0)
(0.438711 0.243637 0)
(0.435188 0.249877 0)
(0.431575 0.256065 0)
(0.427875 0.262202 0)
(0.424087 0.268285 0)
(0.420213 0.274313 0)
(0.416253 0.280286 0)
(0.412208 0.286201 0)
(0.408079 0.292058 0)
(0.403867 0.297855 0)
(0.399573 0.303592 0)
(0.395197 0.309267 0)
(0.39074 0.314878 0)
(0.386204 0.320426 0)
(0.381589 0.325908 0)
(0.376897 0.331324 0)
(0.372127 0.336672 0)
(0.367282 0.341951 0)
(0.362361 0.347161 0)
(0.357367 0.3523 0)
(0.3523 0.357367 0)
(0.347161 0.362361 0)
(0.341951 0.367282 0)
(0.336672 0.372127 0)
(0.331324 0.376897 0)
(0.325908 0.381589 0)
(0.320426 0.386204 0)
(0.314878 0.39074 0)
(0.309267 0.395197 0)
(0.303592 0.399573 0)
(0.297855 0.403867 0)
(0.292058 0.408079 0)
(0.286201 0.412208 0)
(0.280286 0.416253 0)
(0.274313 0.420213 0)
(0.268285 0.424087 0)
(0.262202 0.427875 0)
(0.256065 0.431575 0)
(0.249877 0.435188 0)
(0.243637 0.438711 0)
(0.237347 0.442146 0)
(0.23101 0.44549 0)
(0.224625 0.448743 0)
(0.218194 0.451905 0)
(0.211719 0.454974 0)
(0.2052 0.457951 0)
(0.19864 0.460835 0)
(0.192039 0.463624 0)
(0.1854 0.466319 0)
(0.178722 0.468919 0)
(0.172008 0.471423 0)
(0.165258 0.473831 0)
(0.158476 0.476143 0)
(0.15166 0.478357 0)
(0.144814 0.480474 0)
(0.137938 0.482493 0)
(0.131035 0.484413 0)
(0.124104 0.486235 0)
(0.117148 0.487958 0)
(0.110169 0.489581 0)
(0.103166 0.491104 0)
(0.0961431 0.492527 0)
(0.0891003 0.49385 0)
(0.0820393 0.495072 0)
(0.0749616 0.496193 0)
(0.0678685 0.497213 0)
(0.0607617 0.498131 0)
(0.0536424 0.498948 0)
(0.0465123 0.499663 0)
(0.0393726 0.500276 0)
(0.0322249 0.500787 0)
(0.0250706 0.501196 0)
(0.0179112 0.501503 0)
(0.0107482 0.501708 0)
(0.00358298 0.50181 0)
(0.497918 0.00355519 0)
(0.497817 0.0106648 0)
(0.497614 0.0177723 0)
(0.497309 0.0248762 0)
(0.496903 0.0319749 0)
(0.496396 0.0390672 0)
(0.495787 0.0461515 0)
(0.495078 0.0532264 0)
(0.494267 0.0602904 0)
(0.493356 0.0673421 0)
(0.492344 0.0743801 0)
(0.491232 0.081403 0)
(0.490019 0.0884092 0)
(0.488707 0.0953974 0)
(0.487295 0.102366 0)
(0.485783 0.109314 0)
(0.484173 0.11624 0)
(0.482464 0.123142 0)
(0.480656 0.130018 0)
(0.478751 0.136869 0)
(0.476747 0.143691 0)
(0.474647 0.150484 0)
(0.47245 0.157246 0)
(0.470156 0.163977 0)
(0.467767 0.170674 0)
(0.465282 0.177336 0)
(0.462702 0.183961 0)
(0.460028 0.19055 0)
(0.45726 0.197099 0)
(0.454399 0.203609 0)
(0.451445 0.210077 0)
(0.4484 0.216502 0)
(0.445262 0.222882 0)
(0.442034 0.229218 0)
(0.438716 0.235506 0)
(0.435308 0.241747 0)
(0.431812 0.247938 0)
(0.428228 0.254079 0)
(0.424556 0.260168 0)
(0.420797 0.266204 0)
(0.416953 0.272186 0)
(0.413024 0.278112 0)
(0.409011 0.283981 0)
(0.404914 0.289793 0)
(0.400735 0.295545 0)
(0.396473 0.301237 0)
(0.392132 0.306868 0)
(0.38771 0.312436 0)
(0.383209 0.317941 0)
(0.37863 0.32338 0)
(0.373973 0.328754 0)
(0.369241 0.33406 0)
(0.364433 0.339299 0)
(0.359551 0.344468 0)
(0.354595 0.349567 0)
(0.349567 0.354595 0)
(0.344468 0.359551 0)
(0.339299 0.364433 0)
(0.33406 0.369241 0)
(0.328754 0.373973 0)
(0.32338 0.37863 0)
(0.317941 0.383209 0)
(0.312436 0.38771 0)
(0.306868 0.392132 0)
(0.301237 0.396473 0)
(0.295545 0.400735 0)
(0.289793 0.404914 0)
(0.283981 0.409011 0)
(0.278112 0.413024 0)
(0.272186 0.416953 0)
(0.266204 0.420797 0)
(0.260168 0.424556 0)
(0.254079 0.428228 0)
(0.247938 0.431812 0)
(0.241747 0.435308 0)
(0.235506 0.438716 0)
(0.229218 0.442034 0)
(0.222882 0.445262 0)
(0.216502 0.4484 0)
(0.210077 0.451445 0)
(0.203609 0.454399 0)
(0.197099 0.45726 0)
(0.19055 0.460028 0)
(0.183961 0.462702 0)
(0.177336 0.465282 0)
(0.170674 0.467767 0)
(0.163977 0.470156 0)
(0.157246 0.47245 0)
(0.150484 0.474647 0)
(0.143691 0.476747 0)
(0.136869 0.478751 0)
(0.130018 0.480656 0)
(0.123142 0.482464 0)
(0.11624 0.484173 0)
(0.109314 0.485783 0)
(0.102366 0.487295 0)
(0.0953974 0.488707 0)
(0.0884092 0.490019 0)
(0.081403 0.491232 0)
(0.0743801 0.492344 0)
(0.0673421 0.493356 0)
(0.0602904 0.494267 0)
(0.0532264 0.495078 0)
(0.0461515 0.495787 0)
(0.0390672 0.496396 0)
(0.0319749 0.496903 0)
(0.0248762 0.497309 0)
(0.0177723 0.497614 0)
(0.0106648 0.497817 0)
(0.00355519 0.497918 0)
(0.494142 0.00352823 0)
(0.494041 0.010584 0)
(0.49384 0.0176375 0)
(0.493538 0.0246875 0)
(0.493135 0.0317324 0)
(0.492631 0.0387709 0)
(0.492027 0.0458015 0)
(0.491323 0.0528227 0)
(0.490519 0.0598332 0)
(0.489614 0.0668314 0)
(0.48861 0.073816 0)
(0.487506 0.0807856 0)
(0.486303 0.0877387 0)
(0.485001 0.0946739 0)
(0.483599 0.10159 0)
(0.482099 0.108485 0)
(0.480501 0.115358 0)
(0.478805 0.122208 0)
(0.477011 0.129032 0)
(0.47512 0.135831 0)
(0.473132 0.142601 0)
(0.471047 0.149343 0)
(0.468867 0.156054 0)
(0.466591 0.162733 0)
(0.464219 0.169379 0)
(0.461753 0.175991 0)
(0.459193 0.182566 0)
(0.456539 0.189105 0)
(0.453792 0.195605 0)
(0.450953 0.202065 0)
(0.448022 0.208483 0)
(0.444999 0.21486 0)
(0.441886 0.221192 0)
(0.438682 0.227479 0)
(0.435389 0.23372 0)
(0.432007 0.239914 0)
(0.428537 0.246058 0)
(0.42498 0.252152 0)
(0.421336 0.258195 0)
(0.417606 0.264185 0)
(0.413791 0.270121 0)
(0.409892 0.276003 0)
(0.405909 0.281828 0)
(0.401843 0.287595 0)
(0.397695 0.293304 0)
(0.393467 0.298953 0)
(0.389158 0.304541 0)
(0.384769 0.310067 0)
(0.380302 0.315529 0)
(0.375758 0.320928 0)
(0.371137 0.326261 0)
(0.36644 0.331527 0)
(0.361669 0.336726 0)
(0.356824 0.341856 0)
(0.351906 0.346916 0)
(0.346916 0.351906 0)
(0.341856 0.356824 0)
(0.336726 0.361669 0)
(0.331527 0.36644 0)
(0.326261 0.371137 0)
(0.320928 0.375758 0)
(0.315529 0.380302 0)
(0.310067 0.384769 0)
(0.304541 0.389158 0)
(0.298953 0.393467 0)
(0.293304 0.397695 0)
(0.287595 0.401843 0)
(0.281828 0.405909 0)
(0.276003 0.409892 0)
(0.270121 0.413791 0)
(0.264185 0.417606 0)
(0.258195 0.421336 0)
(0.252152 0.42498 0)
(0.246058 0.428537 0)
(0.239914 0.432007 0)
(0.23372 0.435389 0)
(0.227479 0.438682 0)
(0.221192 0.441886 0)
(0.21486 0.444999 0)
(0.208483 0.448022 0)
(0.202065 0.450953 0)
(0.195605 0.453792 0)
(0.189105 0.456539 0)
(0.182566 0.459193 0)
(0.175991 0.461753 0)
(0.169379 0.464219 0)
(0.162733 0.466591 0)
(0.156054 0.468867 0)
(0.149343 0.471047 0)
(0.142601 0.473132 0)
(0.135831 0.47512 0)
(0.129032 0.477011 0)
(0.122208 0.478805 0)
(0.115358 0.480501 0)
(0.108485 0.482099 0)
(0.10159 0.483599 0)
(0.0946739 0.485001 0)
(0.0877387 0.486303 0)
(0.0807856 0.487506 0)
(0.073816 0.48861 0)
(0.0668314 0.489614 0)
(0.0598332 0.490519 0)
(0.0528227 0.491323 0)
(0.0458015 0.492027 0)
(0.0387709 0.492631 0)
(0.0317324 0.493135 0)
(0.0246875 0.493538 0)
(0.0176375 0.49384 0)
(0.010584 0.494041 0)
(0.00352823 0.494142 0)
(0.490475 0.00350205 0)
(0.490375 0.0105054 0)
(0.490175 0.0175067 0)
(0.489875 0.0245043 0)
(0.489476 0.031497 0)
(0.488976 0.0384832 0)
(0.488377 0.0454616 0)
(0.487678 0.0524308 0)
(0.486879 0.0593892 0)
(0.485982 0.0663355 0)
(0.484985 0.0732683 0)
(0.483889 0.0801862 0)
(0.482695 0.0870877 0)
(0.481402 0.0939715 0)
(0.480011 0.100836 0)
(0.478522 0.10768 0)
(0.476936 0.114502 0)
(0.475252 0.121301 0)
(0.473472 0.128075 0)
(0.471594 0.134823 0)
(0.469621 0.141543 0)
(0.467552 0.148235 0)
(0.465388 0.154896 0)
(0.463128 0.161526 0)
(0.460775 0.168122 0)
(0.458327 0.174685 0)
(0.455786 0.181212 0)
(0.453152 0.187702 0)
(0.450425 0.194153 0)
(0.447607 0.200565 0)
(0.444697 0.206936 0)
(0.441697 0.213265 0)
(0.438607 0.219551 0)
(0.435427 0.225792 0)
(0.432158 0.231986 0)
(0.428802 0.238134 0)
(0.425358 0.244232 0)
(0.421827 0.250281 0)
(0.41821 0.256279 0)
(0.414508 0.262225 0)
(0.410721 0.268117 0)
(0.40685 0.273955 0)
(0.402897 0.279736 0)
(0.398861 0.285461 0)
(0.394745 0.291127 0)
(0.390547 0.296735 0)
(0.38627 0.302281 0)
(0.381914 0.307766 0)
(0.377481 0.313188 0)
(0.37297 0.318546 0)
(0.368383 0.32384 0)
(0.363721 0.329067 0)
(0.358985 0.334227 0)
(0.354176 0.339319 0)
(0.349295 0.344342 0)
(0.344342 0.349295 0)
(0.339319 0.354176 0)
(0.334227 0.358985 0)
(0.329067 0.363721 0)
(0.32384 0.368383 0)
(0.318546 0.37297 0)
(0.313188 0.377481 0)
(0.307766 0.381914 0)
(0.302281 0.38627 0)
(0.296735 0.390547 0)
(0.291127 0.394745 0)
(0.285461 0.398861 0)
(0.279736 0.402897 0)
(0.273955 0.40685 0)
(0.268117 0.410721 0)
(0.262225 0.414508 0)
(0.256279 0.41821 0)
(0.250281 0.421827 0)
(0.244232 0.425358 0)
(0.238134 0.428802 0)
(0.231986 0.432158 0)
(0.225792 0.435427 0)
(0.219551 0.438607 0)
(0.213265 0.441697 0)
(0.206936 0.444697 0)
(0.200565 0.447607 0)
(0.194153 0.450425 0)
(0.187702 0.453152 0)
(0.181212 0.455786 0)
(0.174685 0.458327 0)
(0.168122 0.460775 0)
(0.161526 0.463128 0)
(0.154896 0.465388 0)
(0.148235 0.467552 0)
(0.141543 0.469621 0)
(0.134823 0.471594 0)
(0.128075 0.473472 0)
(0.121301 0.475252 0)
(0.114502 0.476936 0)
(0.10768 0.478522 0)
(0.100836 0.480011 0)
(0.0939715 0.481402 0)
(0.0870877 0.482695 0)
(0.0801862 0.483889 0)
(0.0732683 0.484985 0)
(0.0663355 0.485982 0)
(0.0593892 0.486879 0)
(0.0524308 0.487678 0)
(0.0454616 0.488377 0)
(0.0384832 0.488976 0)
(0.031497 0.489476 0)
(0.0245043 0.489875 0)
(0.0175067 0.490175 0)
(0.0105054 0.490375 0)
(0.00350205 0.490475 0)
(0.486916 0.00347663 0)
(0.486817 0.0104292 0)
(0.486619 0.0173796 0)
(0.486321 0.0243265 0)
(0.485924 0.0312684 0)
(0.485428 0.038204 0)
(0.484833 0.0451318 0)
(0.484139 0.0520503 0)
(0.483346 0.0589583 0)
(0.482455 0.0658542 0)
(0.481466 0.0727367 0)
(0.480378 0.0796043 0)
(0.479192 0.0864558 0)
(0.477909 0.0932896 0)
(0.476528 0.100104 0)
(0.47505 0.106899 0)
(0.473475 0.113671 0)
(0.471804 0.120421 0)
(0.470036 0.127145 0)
(0.468172 0.133844 0)
(0.466213 0.140516 0)
(0.464159 0.147159 0)
(0.462011 0.153772 0)
(0.459768 0.160354 0)
(0.457431 0.166902 0)
(0.455001 0.173417 0)
(0.452479 0.179897 0)
(0.449864 0.18634 0)
(0.447157 0.192744 0)
(0.444359 0.19911 0)
(0.441471 0.205435 0)
(0.438492 0.211718 0)
(0.435424 0.217958 0)
(0.432267 0.224153 0)
(0.429022 0.230303 0)
(0.42569 0.236406 0)
(0.422271 0.24246 0)
(0.418766 0.248465 0)
(0.415175 0.25442 0)
(0.4115 0.260322 0)
(0.407741 0.266172 0)
(0.403898 0.271967 0)
(0.399973 0.277707 0)
(0.395967 0.28339 0)
(0.39188 0.289015 0)
(0.387713 0.294581 0)
(0.383467 0.300088 0)
(0.379143 0.305533 0)
(0.374742 0.310916 0)
(0.370264 0.316235 0)
(0.36571 0.32149 0)
(0.361082 0.326679 0)
(0.356381 0.331802 0)
(0.351606 0.336857 0)
(0.34676 0.341844 0)
(0.341844 0.34676 0)
(0.336857 0.351606 0)
(0.331802 0.356381 0)
(0.326679 0.361082 0)
(0.32149 0.36571 0)
(0.316235 0.370264 0)
(0.310916 0.374742 0)
(0.305533 0.379143 0)
(0.300088 0.383467 0)
(0.294581 0.387713 0)
(0.289015 0.39188 0)
(0.28339 0.395967 0)
(0.277707 0.399973 0)
(0.271967 0.403898 0)
(0.266172 0.407741 0)
(0.260322 0.4115 0)
(0.25442 0.415175 0)
(0.248465 0.418766 0)
(0.24246 0.422271 0)
(0.236406 0.42569 0)
(0.230303 0.429022 0)
(0.224153 0.432267 0)
(0.217958 0.435424 0)
(0.211718 0.438492 0)
(0.205435 0.441471 0)
(0.19911 0.444359 0)
(0.192744 0.447157 0)
(0.18634 0.449864 0)
(0.179897 0.452479 0)
(0.173417 0.455001 0)
(0.166902 0.457431 0)
(0.160354 0.459768 0)
(0.153772 0.462011 0)
(0.147159 0.464159 0)
(0.140516 0.466213 0)
(0.133844 0.468172 0)
(0.127145 0.470036 0)
(0.120421 0.471804 0)
(0.113671 0.473475 0)
(0.106899 0.47505 0)
(0.100104 0.476528 0)
(0.0932896 0.477909 0)
(0.0864558 0.479192 0)
(0.0796043 0.480378 0)
(0.0727367 0.481466 0)
(0.0658542 0.482455 0)
(0.0589583 0.483346 0)
(0.0520503 0.484139 0)
(0.0451318 0.484833 0)
(0.038204 0.485428 0)
(0.0312684 0.485924 0)
(0.0243265 0.486321 0)
(0.0173796 0.486619 0)
(0.0104292 0.486817 0)
(0.00347663 0.486916 0)
(0.483461 0.00345196 0)
(0.483362 0.0103552 0)
(0.483165 0.0172563 0)
(0.482869 0.0241539 0)
(0.482475 0.0310465 0)
(0.481983 0.0379329 0)
(0.481392 0.0448114 0)
(0.480703 0.0516809 0)
(0.479916 0.0585398 0)
(0.479031 0.0653868 0)
(0.478048 0.0722204 0)
(0.476968 0.0790394 0)
(0.475791 0.0858422 0)
(0.474517 0.0926275 0)
(0.473146 0.0993939 0)
(0.471678 0.10614 0)
(0.470115 0.112865 0)
(0.468455 0.119566 0)
(0.4667 0.126243 0)
(0.46485 0.132894 0)
(0.462905 0.139519 0)
(0.460865 0.146115 0)
(0.458732 0.152681 0)
(0.456505 0.159215 0)
(0.454185 0.165718 0)
(0.451772 0.172186 0)
(0.449267 0.17862 0)
(0.446671 0.185017 0)
(0.443983 0.191376 0)
(0.441205 0.197697 0)
(0.438337 0.203977 0)
(0.43538 0.210215 0)
(0.432334 0.216411 0)
(0.429199 0.222562 0)
(0.425978 0.228668 0)
(0.422669 0.234728 0)
(0.419274 0.240739 0)
(0.415794 0.246702 0)
(0.412228 0.252614 0)
(0.408579 0.258475 0)
(0.404847 0.264283 0)
(0.401032 0.270037 0)
(0.397135 0.275736 0)
(0.393157 0.281378 0)
(0.389099 0.286964 0)
(0.384961 0.292491 0)
(0.380746 0.297958 0)
(0.376452 0.303364 0)
(0.372082 0.308709 0)
(0.367636 0.313991 0)
(0.363115 0.319208 0)
(0.358519 0.324361 0)
(0.353851 0.329447 0)
(0.349111 0.334466 0)
(0.344299 0.339417 0)
(0.339417 0.344299 0)
(0.334466 0.349111 0)
(0.329447 0.353851 0)
(0.324361 0.358519 0)
(0.319208 0.363115 0)
(0.313991 0.367636 0)
(0.308709 0.372082 0)
(0.303364 0.376452 0)
(0.297958 0.380746 0)
(0.292491 0.384961 0)
(0.286964 0.389099 0)
(0.281378 0.393157 0)
(0.275736 0.397135 0)
(0.270037 0.401032 0)
(0.264283 0.404847 0)
(0.258475 0.408579 0)
(0.252614 0.412228 0)
(0.246702 0.415794 0)
(0.240739 0.419274 0)
(0.234728 0.422669 0)
(0.228668 0.425978 0)
(0.222562 0.429199 0)
(0.216411 0.432334 0)
(0.210215 0.43538 0)
(0.203977 0.438337 0)
(0.197697 0.441205 0)
(0.191376 0.443983 0)
(0.185017 0.446671 0)
(0.17862 0.449267 0)
(0.172186 0.451772 0)
(0.165718 0.454185 0)
(0.159215 0.456505 0)
(0.152681 0.458732 0)
(0.146115 0.460865 0)
(0.139519 0.462905 0)
(0.132894 0.46485 0)
(0.126243 0.4667 0)
(0.119566 0.468455 0)
(0.112865 0.470115 0)
(0.10614 0.471678 0)
(0.0993939 0.473146 0)
(0.0926275 0.474517 0)
(0.0858422 0.475791 0)
(0.0790394 0.476968 0)
(0.0722204 0.478048 0)
(0.0653868 0.479031 0)
(0.0585398 0.479916 0)
(0.0516809 0.480703 0)
(0.0448114 0.481392 0)
(0.0379329 0.481983 0)
(0.0310465 0.482475 0)
(0.0241539 0.482869 0)
(0.0172563 0.483165 0)