/*--------------------------------*- C++ -*----------------------------------*\
| =========                 |                                                 |
| \\      /  F ield         | OpenFOAM: The Open Source CFD Toolbox           |
|  \\    /   O peration     | Version:  2312                                  |
|   \\  /    A nd           | Website:  www.openfoam.com                      |
|    \\/     M anipulation  |                                                 |
\*---------------------------------------------------------------------------*/
FoamFile
{
    version     2.0;
    format      ascii;
    arch        "LSB;label=32;scalar=64";
    class       pointVectorField;
    location    "40";
    object      pointD;
}
// * * * * * * * * * * * * * * * * * * * * * * * * * * * * * * * * * * * * * //

dimensions      [0 1 0 0 0 0 0];

internalField   nonuniform List<vector> 
26196
(
(1.20348 0 0)
(0.890243 0 0)
(0 1.20348 0)
(0 0.890243 0)
(1.20348 0 0)
(0.890243 0 0)
(0 0.890243 0)
(0 1.20348 0)
(1.19394 0 0)
(1.18463 0 0)
(1.17564 0 0)
(1.16685 0 0)
(1.15832 0 0)
(1.15001 0 0)
(1.14192 0 0)
(1.13405 0 0)
(1.12639 0 0)
(1.11893 0 0)
(1.11168 0 0)
(1.10461 0 0)
(1.09774 0 0)
(1.09104 0 0)
(1.08453 0 0)
(1.07819 0 0)
(1.07201 0 0)
(1.06601 0 0)
(1.06016 0 0)
(1.05446 0 0)
(1.04892 0 0)
(1.04353 0 0)
(1.03828 0 0)
(1.03317 0 0)
(1.0282 0 0)
(1.02336 0 0)
(1.01865 0 0)
(1.01407 0 0)
(1.00961 0 0)
(1.00527 0 0)
(1.00105 0 0)
(0.996945 0 0)
(0.992952 0 0)
(0.989067 0 0)
(0.98529 0 0)
(0.981617 0 0)
(0.978045 0 0)
(0.974573 0 0)
(0.971198 0 0)
(0.967918 0 0)
(0.964731 0 0)
(0.961634 0 0)
(0.958625 0 0)
(0.955703 0 0)
(0.952866 0 0)
(0.950111 0 0)
(0.947437 0 0)
(0.944843 0 0)
(0.942325 0 0)
(0.939884 0 0)
(0.937516 0 0)
(0.935221 0 0)
(0.932997 0 0)
(0.930842 0 0)
(0.928755 0 0)
(0.926735 0 0)
(0.92478 0 0)
(0.922889 0 0)
(0.92106 0 0)
(0.919292 0 0)
(0.917585 0 0)
(0.915936 0 0)
(0.914344 0 0)
(0.91281 0 0)
(0.91133 0 0)
(0.909905 0 0)
(0.908533 0 0)
(0.907213 0 0)
(0.905944 0 0)
(0.904725 0 0)
(0.903556 0 0)
(0.902434 0 0)
(0.90136 0 0)
(0.900333 0 0)
(0.89935 0 0)
(0.898413 0 0)
(0.89752 0 0)
(0.896669 0 0)
(0.895861 0 0)
(0.895094 0 0)
(0.894369 0 0)
(0.893683 0 0)
(0.893036 0 0)
(0.892428 0 0)
(0.891858 0 0)
(0.891325 0 0)
(0.890829 0 0)
(0.890369 0 0)
(0.889944 0 0)
(0.889554 0 0)
(0.889198 0 0)
(0.888875 0 0)
(0.888586 0 0)
(0.888329 0 0)
(0.888103 0 0)
(0.887909 0 0)
(0.887746 0 0)
(0.887613 0 0)
(0.88751 0 0)
(0.887437 0 0)
(0.887392 0 0)
(0.887375 0 0)
(0.887386 0 0)
(0.887425 0 0)
(0.887491 0 0)
(0.887584 0 0)
(0.887702 0 0)
(0.887846 0 0)
(0.888016 0 0)
(0.888211 0 0)
(0.88843 0 0)
(0.888673 0 0)
(0.88894 0 0)
(0.889232 0 0)
(0.889544 0 0)
(0.889884 0 0)
(0.890153 0.0127122 0)
(0.88988 0.0254218 0)
(0.889427 0.0381263 0)
(0.888792 0.0508229 0)
(0.887975 0.0635092 0)
(0.886978 0.0761826 0)
(0.8858 0.0888404 0)
(0.884441 0.10148 0)
(0.882901 0.114099 0)
(0.881182 0.126695 0)
(0.879283 0.139265 0)
(0.877205 0.151806 0)
(0.874948 0.164317 0)
(0.872512 0.176794 0)
(0.869899 0.189235 0)
(0.867108 0.201637 0)
(0.86414 0.213999 0)
(0.860996 0.226316 0)
(0.857677 0.238588 0)
(0.854182 0.250811 0)
(0.850514 0.262982 0)
(0.846672 0.2751 0)
(0.842657 0.287162 0)
(0.838471 0.299166 0)
(0.834113 0.311108 0)
(0.829586 0.322987 0)
(0.824889 0.3348 0)
(0.820024 0.346545 0)
(0.814992 0.358219 0)
(0.809794 0.369821 0)
(0.804431 0.381346 0)
(0.798903 0.392794 0)
(0.793213 0.404162 0)
(0.787361 0.415448 0)
(0.781348 0.426648 0)
(0.775176 0.437762 0)
(0.768846 0.448787 0)
(0.762359 0.459719 0)
(0.755717 0.470559 0)
(0.74892 0.481302 0)
(0.741971 0.491947 0)
(0.734871 0.502492 0)
(0.727621 0.512934 0)
(0.720222 0.523272 0)
(0.712677 0.533503 0)
(0.704986 0.543625 0)
(0.697151 0.553637 0)
(0.689175 0.563535 0)
(0.681057 0.573319 0)
(0.672801 0.582985 0)
(0.664408 0.592533 0)
(0.655879 0.60196 0)
(0.647216 0.611265 0)
(0.638422 0.620444 0)
(0.629497 0.629497 0)
(0.620444 0.638422 0)
(0.611265 0.647216 0)
(0.60196 0.655879 0)
(0.592533 0.664408 0)
(0.582985 0.672801 0)
(0.573319 0.681057 0)
(0.563535 0.689175 0)
(0.553637 0.697151 0)
(0.543625 0.704986 0)
(0.533503 0.712677 0)
(0.523272 0.720222 0)
(0.512934 0.727621 0)
(0.502492 0.734871 0)
(0.491947 0.741971 0)
(0.481302 0.74892 0)
(0.470559 0.755717 0)
(0.459719 0.762359 0)
(0.448787 0.768846 0)
(0.437762 0.775176 0)
(0.426648 0.781348 0)
(0.415448 0.787361 0)
(0.404162 0.793213 0)
(0.392794 0.798903 0)
(0.381346 0.804431 0)
(0.369821 0.809794 0)
(0.358219 0.814992 0)
(0.346545 0.820024 0)
(0.3348 0.824889 0)
(0.322987 0.829586 0)
(0.311108 0.834113 0)
(0.299166 0.838471 0)
(0.287162 0.842657 0)
(0.2751 0.846672 0)
(0.262982 0.850514 0)
(0.250811 0.854182 0)
(0.238588 0.857677 0)
(0.226316 0.860996 0)
(0.213999 0.86414 0)
(0.201637 0.867108 0)
(0.189235 0.869899 0)
(0.176794 0.872512 0)
(0.164317 0.874948 0)
(0.151806 0.877205 0)
(0.139265 0.879283 0)
(0.126695 0.881182 0)
(0.114099 0.882901 0)
(0.10148 0.884441 0)
(0.0888404 0.8858 0)
(0.0761826 0.886978 0)
(0.0635092 0.887975 0)
(0.0508229 0.888792 0)
(0.0381263 0.889427 0)
(0.0254218 0.88988 0)
(0.0127122 0.890153 0)
(0 0.889884 0)
(0 0.889544 0)
(0 0.889232 0)
(0 0.88894 0)
(0 0.888673 0)
(0 0.88843 0)
(0 0.888211 0)
(0 0.888016 0)
(0 0.887846 0)
(0 0.887702 0)
(0 0.887584 0)
(0 0.887491 0)
(0 0.887425 0)
(0 0.887386 0)
(0 0.887375 0)
(0 0.887392 0)
(0 0.887437 0)
(0 0.88751 0)
(0 0.887613 0)
(0 0.887746 0)
(0 0.887909 0)
(0 0.888103 0)
(0 0.888329 0)
(0 0.888586 0)
(0 0.888875 0)
(0 0.889198 0)
(0 0.889554 0)
(0 0.889944 0)
(0 0.890369 0)
(0 0.890829 0)
(0 0.891325 0)
(0 0.891858 0)
(0 0.892428 0)
(0 0.893036 0)
(0 0.893683 0)
(0 0.894369 0)
(0 0.895094 0)
(0 0.895861 0)
(0 0.896669 0)
(0 0.89752 0)
(0 0.898413 0)
(0 0.89935 0)
(0 0.900333 0)
(0 0.90136 0)
(0 0.902434 0)
(0 0.903556 0)
(0 0.904725 0)
(0 0.905944 0)
(0 0.907213 0)
(0 0.908533 0)
(0 0.909905 0)
(0 0.91133 0)
(0 0.91281 0)
(0 0.914344 0)
(0 0.915936 0)
(0 0.917585 0)
(0 0.919292 0)
(0 0.92106 0)
(0 0.922889 0)
(0 0.92478 0)
(0 0.926735 0)
(0 0.928755 0)
(0 0.930842 0)
(0 0.932997 0)
(0 0.935221 0)
(0 0.937516 0)
(0 0.939884 0)
(0 0.942325 0)
(0 0.944843 0)
(0 0.947437 0)
(0 0.950111 0)
(0 0.952866 0)
(0 0.955703 0)
(0 0.958625 0)
(0 0.961634 0)
(0 0.964731 0)
(0 0.967918 0)
(0 0.971198 0)
(0 0.974573 0)
(0 0.978045 0)
(0 0.981617 0)
(0 0.98529 0)
(0 0.989067 0)
(0 0.992952 0)
(0 0.996945 0)
(0 1.00105 0)
(0 1.00527 0)
(0 1.00961 0)
(0 1.01407 0)
(0 1.01865 0)
(0 1.02336 0)
(0 1.0282 0)
(0 1.03317 0)
(0 1.03828 0)
(0 1.04353 0)
(0 1.04892 0)
(0 1.05446 0)
(0 1.06016 0)
(0 1.06601 0)
(0 1.07201 0)
(0 1.07819 0)
(0 1.08453 0)
(0 1.09104 0)
(0 1.09774 0)
(0 1.10461 0)
(0 1.11168 0)
(0 1.11893 0)
(0 1.12639 0)
(0 1.13405 0)
(0 1.14192 0)
(0 1.15001 0)
(0 1.15832 0)
(0 1.16685 0)
(0 1.17564 0)
(0 1.18463 0)
(0 1.19394 0)
(0.0171851 1.20336 0)
(0.0343667 1.20299 0)
(0.0515412 1.20238 0)
(0.0687053 1.20152 0)
(0.0858553 1.20041 0)
(0.102988 1.19907 0)
(0.120099 1.19747 0)
(0.137186 1.19564 0)
(0.154246 1.19356 0)
(0.171273 1.19123 0)
(0.188266 1.18866 0)
(0.20522 1.18585 0)
(0.222133 1.1828 0)
(0.239 1.17951 0)
(0.255818 1.17598 0)
(0.272584 1.1722 0)
(0.289295 1.16819 0)
(0.305947 1.16394 0)
(0.322536 1.15946 0)
(0.33906 1.15473 0)
(0.355514 1.14977 0)
(0.371896 1.14458 0)
(0.388202 1.13915 0)
(0.404429 1.13349 0)
(0.420573 1.1276 0)
(0.436632 1.12148 0)
(0.452602 1.11513 0)
(0.468479 1.10855 0)
(0.484261 1.10175 0)
(0.499944 1.09472 0)
(0.515525 1.08747 0)
(0.531001 1.08 0)
(0.546369 1.07231 0)
(0.561625 1.0644 0)
(0.576767 1.05627 0)
(0.591791 1.04793 0)
(0.606695 1.03937 0)
(0.621474 1.0306 0)
(0.636127 1.02162 0)
(0.650651 1.01243 0)
(0.665041 1.00304 0)
(0.679296 0.993439 0)
(0.693413 0.983638 0)
(0.707388 0.973636 0)
(0.721219 0.963436 0)
(0.734903 0.953039 0)
(0.748437 0.942448 0)
(0.761818 0.931664 0)
(0.775044 0.920691 0)
(0.788112 0.90953 0)
(0.801019 0.898183 0)
(0.813763 0.886654 0)
(0.826341 0.874943 0)
(0.838751 0.863054 0)
(0.850989 0.850989 0)
(0.863054 0.838751 0)
(0.874943 0.826341 0)
(0.886654 0.813763 0)
(0.898183 0.801019 0)
(0.90953 0.788112 0)
(0.920691 0.775044 0)
(0.931664 0.761818 0)
(0.942448 0.748437 0)
(0.953039 0.734903 0)
(0.963436 0.721219 0)
(0.973636 0.707388 0)
(0.983638 0.693413 0)
(0.993439 0.679296 0)
(1.00304 0.665041 0)
(1.01243 0.650651 0)
(1.02162 0.636127 0)
(1.0306 0.621474 0)
(1.03937 0.606695 0)
(1.04793 0.591791 0)
(1.05627 0.576767 0)
(1.0644 0.561625 0)
(1.07231 0.546369 0)
(1.08 0.531001 0)
(1.08747 0.515525 0)
(1.09472 0.499944 0)
(1.10175 0.484261 0)
(1.10855 0.468479 0)
(1.11513 0.452602 0)
(1.12148 0.436632 0)
(1.1276 0.420573 0)
(1.13349 0.404429 0)
(1.13915 0.388202 0)
(1.14458 0.371896 0)
(1.14977 0.355514 0)
(1.15473 0.33906 0)
(1.15946 0.322536 0)
(1.16394 0.305947 0)
(1.16819 0.289295 0)
(1.1722 0.272584 0)
(1.17598 0.255818 0)
(1.17951 0.239 0)
(1.1828 0.222133 0)
(1.18585 0.20522 0)
(1.18866 0.188266 0)
(1.19123 0.171273 0)
(1.19356 0.154246 0)
(1.19564 0.137186 0)
(1.19747 0.120099 0)
(1.19907 0.102988 0)
(1.20041 0.0858553 0)
(1.20152 0.0687053 0)
(1.20238 0.0515412 0)
(1.20299 0.0343667 0)
(1.20336 0.0171851 0)
(1.19394 0 0)
(1.18463 0 0)
(1.17564 0 0)
(1.16685 0 0)
(1.15832 0 0)
(1.15001 0 0)
(1.14192 0 0)
(1.13405 0 0)
(1.12639 0 0)
(1.11893 0 0)
(1.11168 0 0)
(1.10461 0 0)
(1.09774 0 0)
(1.09104 0 0)
(1.08453 0 0)
(1.07819 0 0)
(1.07201 0 0)
(1.06601 0 0)
(1.06016 0 0)
(1.05446 0 0)
(1.04892 0 0)
(1.04353 0 0)
(1.03828 0 0)
(1.03317 0 0)
(1.0282 0 0)
(1.02336 0 0)
(1.01865 0 0)
(1.01407 0 0)
(1.00961 0 0)
(1.00527 0 0)
(1.00105 0 0)
(0.996945 0 0)
(0.992952 0 0)
(0.989067 0 0)
(0.98529 0 0)
(0.981617 0 0)
(0.978045 0 0)
(0.974573 0 0)
(0.971198 0 0)
(0.967918 0 0)
(0.964731 0 0)
(0.961634 0 0)
(0.958625 0 0)
(0.955703 0 0)
(0.952866 0 0)
(0.950111 0 0)
(0.947437 0 0)
(0.944843 0 0)
(0.942325 0 0)
(0.939884 0 0)
(0.937516 0 0)
(0.935221 0 0)
(0.932997 0 0)
(0.930842 0 0)
(0.928755 0 0)
(0.926735 0 0)
(0.92478 0 0)
(0.922889 0 0)
(0.92106 0 0)
(0.919292 0 0)
(0.917585 0 0)
(0.915936 0 0)
(0.914344 0 0)
(0.91281 0 0)
(0.91133 0 0)
(0.909905 0 0)
(0.908533 0 0)
(0.907213 0 0)
(0.905944 0 0)
(0.904725 0 0)
(0.903556 0 0)
(0.902434 0 0)
(0.90136 0 0)
(0.900333 0 0)
(0.89935 0 0)
(0.898413 0 0)
(0.89752 0 0)
(0.896669 0 0)
(0.895861 0 0)
(0.895094 0 0)
(0.894369 0 0)
(0.893683 0 0)
(0.893036 0 0)
(0.892428 0 0)
(0.891858 0 0)
(0.891325 0 0)
(0.890829 0 0)
(0.890369 0 0)
(0.889944 0 0)
(0.889554 0 0)
(0.889198 0 0)
(0.888875 0 0)
(0.888586 0 0)
(0.888329 0 0)
(0.888103 0 0)
(0.887909 0 0)
(0.887746 0 0)
(0.887613 0 0)
(0.88751 0 0)
(0.887437 0 0)
(0.887392 0 0)
(0.887375 0 0)
(0.887386 0 0)
(0.887425 0 0)
(0.887491 0 0)
(0.887584 0 0)
(0.887702 0 0)
(0.887846 0 0)
(0.888016 0 0)
(0.888211 0 0)
(0.88843 0 0)
(0.888673 0 0)
(0.88894 0 0)
(0.889232 0 0)
(0.889544 0 0)
(0.889884 0 0)
(0.890153 0.0127122 0)
(0.88988 0.0254218 0)
(0.889427 0.0381263 0)
(0.888792 0.0508229 0)
(0.887975 0.0635092 0)
(0.886978 0.0761826 0)
(0.8858 0.0888404 0)
(0.884441 0.10148 0)
(0.882901 0.114099 0)
(0.881182 0.126695 0)
(0.879283 0.139265 0)
(0.877205 0.151806 0)
(0.874948 0.164317 0)
(0.872512 0.176794 0)
(0.869899 0.189235 0)
(0.867108 0.201637 0)
(0.86414 0.213999 0)
(0.860996 0.226316 0)
(0.857677 0.238588 0)
(0.854182 0.250811 0)
(0.850514 0.262982 0)
(0.846672 0.2751 0)
(0.842657 0.287162 0)
(0.838471 0.299166 0)
(0.834113 0.311108 0)
(0.829586 0.322987 0)
(0.824889 0.3348 0)
(0.820024 0.346545 0)
(0.814992 0.358219 0)
(0.809794 0.369821 0)
(0.804431 0.381346 0)
(0.798903 0.392794 0)
(0.793213 0.404162 0)
(0.787361 0.415448 0)
(0.781348 0.426648 0)
(0.775176 0.437762 0)
(0.768846 0.448787 0)
(0.762359 0.459719 0)
(0.755717 0.470559 0)
(0.74892 0.481302 0)
(0.741971 0.491947 0)
(0.734871 0.502492 0)
(0.727621 0.512934 0)
(0.720222 0.523272 0)
(0.712677 0.533503 0)
(0.704986 0.543625 0)
(0.697151 0.553637 0)
(0.689175 0.563535 0)
(0.681057 0.573319 0)
(0.672801 0.582985 0)
(0.664408 0.592533 0)
(0.655879 0.60196 0)
(0.647216 0.611265 0)
(0.638422 0.620444 0)
(0.629497 0.629497 0)
(0.620444 0.638422 0)
(0.611265 0.647216 0)
(0.60196 0.655879 0)
(0.592533 0.664408 0)
(0.582985 0.672801 0)
(0.573319 0.681057 0)
(0.563535 0.689175 0)
(0.553637 0.697151 0)
(0.543625 0.704986 0)
(0.533503 0.712677 0)
(0.523272 0.720222 0)
(0.512934 0.727621 0)
(0.502492 0.734871 0)
(0.491947 0.741971 0)
(0.481302 0.74892 0)
(0.470559 0.755717 0)
(0.459719 0.762359 0)
(0.448787 0.768846 0)
(0.437762 0.775176 0)
(0.426648 0.781348 0)
(0.415448 0.787361 0)
(0.404162 0.793213 0)
(0.392794 0.798903 0)
(0.381346 0.804431 0)
(0.369821 0.809794 0)
(0.358219 0.814992 0)
(0.346545 0.820024 0)
(0.3348 0.824889 0)
(0.322987 0.829586 0)
(0.311108 0.834113 0)
(0.299166 0.838471 0)
(0.287162 0.842657 0)
(0.2751 0.846672 0)
(0.262982 0.850514 0)
(0.250811 0.854182 0)
(0.238588 0.857677 0)
(0.226316 0.860996 0)
(0.213999 0.86414 0)
(0.201637 0.867108 0)
(0.189235 0.869899 0)
(0.176794 0.872512 0)
(0.164317 0.874948 0)
(0.151806 0.877205 0)
(0.139265 0.879283 0)
(0.126695 0.881182 0)
(0.114099 0.882901 0)
(0.10148 0.884441 0)
(0.0888404 0.8858 0)
(0.0761826 0.886978 0)
(0.0635092 0.887975 0)
(0.0508229 0.888792 0)
(0.0381263 0.889427 0)
(0.0254218 0.88988 0)
(0.0127122 0.890153 0)
(0 0.889884 0)
(0 0.889544 0)
(0 0.889232 0)
(0 0.88894 0)
(0 0.888673 0)
(0 0.88843 0)
(0 0.888211 0)
(0 0.888016 0)
(0 0.887846 0)
(0 0.887702 0)
(0 0.887584 0)
(0 0.887491 0)
(0 0.887425 0)
(0 0.887386 0)
(0 0.887375 0)
(0 0.887392 0)
(0 0.887437 0)
(0 0.88751 0)
(0 0.887613 0)
(0 0.887746 0)
(0 0.887909 0)
(0 0.888103 0)
(0 0.888329 0)
(0 0.888586 0)
(0 0.888875 0)
(0 0.889198 0)
(0 0.889554 0)
(0 0.889944 0)
(0 0.890369 0)
(0 0.890829 0)
(0 0.891325 0)
(0 0.891858 0)
(0 0.892428 0)
(0 0.893036 0)
(0 0.893683 0)
(0 0.894369 0)
(0 0.895094 0)
(0 0.895861 0)
(0 0.896669 0)
(0 0.89752 0)
(0 0.898413 0)
(0 0.89935 0)
(0 0.900333 0)
(0 0.90136 0)
(0 0.902434 0)
(0 0.903556 0)
(0 0.904725 0)
(0 0.905944 0)
(0 0.907213 0)
(0 0.908533 0)
(0 0.909905 0)
(0 0.91133 0)
(0 0.91281 0)
(0 0.914344 0)
(0 0.915936 0)
(0 0.917585 0)
(0 0.919292 0)
(0 0.92106 0)
(0 0.922889 0)
(0 0.92478 0)
(0 0.926735 0)
(0 0.928755 0)
(0 0.930842 0)
(0 0.932997 0)
(0 0.935221 0)
(0 0.937516 0)
(0 0.939884 0)
(0 0.942325 0)
(0 0.944843 0)
(0 0.947437 0)
(0 0.950111 0)
(0 0.952866 0)
(0 0.955703 0)
(0 0.958625 0)
(0 0.961634 0)
(0 0.964731 0)
(0 0.967918 0)
(0 0.971198 0)
(0 0.974573 0)
(0 0.978045 0)
(0 0.981617 0)
(0 0.98529 0)
(0 0.989067 0)
(0 0.992952 0)
(0 0.996945 0)
(0 1.00105 0)
(0 1.00527 0)
(0 1.00961 0)
(0 1.01407 0)
(0 1.01865 0)
(0 1.02336 0)
(0 1.0282 0)
(0 1.03317 0)
(0 1.03828 0)
(0 1.04353 0)
(0 1.04892 0)
(0 1.05446 0)
(0 1.06016 0)
(0 1.06601 0)
(0 1.07201 0)
(0 1.07819 0)
(0 1.08453 0)
(0 1.09104 0)
(0 1.09774 0)
(0 1.10461 0)
(0 1.11168 0)
(0 1.11893 0)
(0 1.12639 0)
(0 1.13405 0)
(0 1.14192 0)
(0 1.15001 0)
(0 1.15832 0)
(0 1.16685 0)
(0 1.17564 0)
(0 1.18463 0)
(0 1.19394 0)
(0.0171851 1.20336 0)
(0.0343667 1.20299 0)
(0.0515412 1.20238 0)
(0.0687053 1.20152 0)
(0.0858553 1.20041 0)
(0.102988 1.19907 0)
(0.120099 1.19747 0)
(0.137186 1.19564 0)
(0.154246 1.19356 0)
(0.171273 1.19123 0)
(0.188266 1.18866 0)
(0.20522 1.18585 0)
(0.222133 1.1828 0)
(0.239 1.17951 0)
(0.255818 1.17598 0)
(0.272584 1.1722 0)
(0.289295 1.16819 0)
(0.305947 1.16394 0)
(0.322536 1.15946 0)
(0.33906 1.15473 0)
(0.355514 1.14977 0)
(0.371896 1.14458 0)
(0.388202 1.13915 0)
(0.404429 1.13349 0)
(0.420573 1.1276 0)
(0.436632 1.12148 0)
(0.452602 1.11513 0)
(0.468479 1.10855 0)
(0.484261 1.10175 0)
(0.499944 1.09472 0)
(0.515525 1.08747 0)
(0.531001 1.08 0)
(0.546369 1.07231 0)
(0.561625 1.0644 0)
(0.576767 1.05627 0)
(0.591791 1.04793 0)
(0.606695 1.03937 0)
(0.621474 1.0306 0)
(0.636127 1.02162 0)
(0.650651 1.01243 0)
(0.665041 1.00304 0)
(0.679296 0.993439 0)
(0.693413 0.983638 0)
(0.707388 0.973636 0)
(0.721219 0.963436 0)
(0.734903 0.953039 0)
(0.748437 0.942448 0)
(0.761818 0.931664 0)
(0.775044 0.920691 0)
(0.788112 0.90953 0)
(0.801019 0.898183 0)
(0.813763 0.886654 0)
(0.826341 0.874943 0)
(0.838751 0.863054 0)
(0.850989 0.850989 0)
(0.863054 0.838751 0)
(0.874943 0.826341 0)
(0.886654 0.813763 0)
(0.898183 0.801019 0)
(0.90953 0.788112 0)
(0.920691 0.775044 0)
(0.931664 0.761818 0)
(0.942448 0.748437 0)
(0.953039 0.734903 0)
(0.963436 0.721219 0)
(0.973636 0.707388 0)
(0.983638 0.693413 0)
(0.993439 0.679296 0)
(1.00304 0.665041 0)
(1.01243 0.650651 0)
(1.02162 0.636127 0)
(1.0306 0.621474 0)
(1.03937 0.606695 0)
(1.04793 0.591791 0)
(1.05627 0.576767 0)
(1.0644 0.561625 0)
(1.07231 0.546369 0)
(1.08 0.531001 0)
(1.08747 0.515525 0)
(1.09472 0.499944 0)
(1.10175 0.484261 0)
(1.10855 0.468479 0)
(1.11513 0.452602 0)
(1.12148 0.436632 0)
(1.1276 0.420573 0)
(1.13349 0.404429 0)
(1.13915 0.388202 0)
(1.14458 0.371896 0)
(1.14977 0.355514 0)
(1.15473 0.33906 0)
(1.15946 0.322536 0)
(1.16394 0.305947 0)
(1.16819 0.289295 0)
(1.1722 0.272584 0)
(1.17598 0.255818 0)
(1.17951 0.239 0)
(1.1828 0.222133 0)
(1.18585 0.20522 0)
(1.18866 0.188266 0)
(1.19123 0.171273 0)
(1.19356 0.154246 0)
(1.19564 0.137186 0)
(1.19747 0.120099 0)
(1.19907 0.102988 0)
(1.20041 0.0858553 0)
(1.20152 0.0687053 0)
(1.20238 0.0515412 0)
(1.20299 0.0343667 0)
(1.20336 0.0171851 0)
(1.19382 0.0170489 0)
(1.19346 0.0340943 0)
(1.19285 0.0511328 0)
(1.192 0.0681609 0)
(1.1909 0.085175 0)
(1.18957 0.102172 0)
(1.18798 0.119148 0)
(1.18616 0.136099 0)
(1.1841 0.153023 0)
(1.18179 0.169916 0)
(1.17925 0.186774 0)
(1.17646 0.203594 0)
(1.17343 0.220373 0)
(1.17016 0.237106 0)
(1.16666 0.253791 0)
(1.16292 0.270425 0)
(1.15894 0.287003 0)
(1.15472 0.303523 0)
(1.15027 0.319981 0)
(1.14558 0.336373 0)
(1.14066 0.352697 0)
(1.13551 0.368949 0)
(1.13012 0.385126 0)
(1.12451 0.401224 0)
(1.11867 0.417241 0)
(1.11259 0.433172 0)
(1.1063 0.449015 0)
(1.09977 0.464767 0)
(1.09302 0.480424 0)
(1.08605 0.495983 0)
(1.07886 0.51144 0)
(1.07144 0.526794 0)
(1.06381 0.54204 0)
(1.05596 0.557175 0)
(1.0479 0.572197 0)
(1.03962 0.587102 0)
(1.03113 0.601887 0)
(1.02243 0.61655 0)
(1.01353 0.631087 0)
(1.00441 0.645495 0)
(0.995091 0.659772 0)
(0.985568 0.673914 0)
(0.975844 0.687919 0)
(0.965922 0.701783 0)
(0.955802 0.715504 0)
(0.945488 0.72908 0)
(0.93498 0.742507 0)
(0.924282 0.755782 0)
(0.913396 0.768903 0)
(0.902323 0.781868 0)
(0.891067 0.794673 0)
(0.879628 0.807316 0)
(0.868011 0.819794 0)
(0.856216 0.832105 0)
(0.844246 0.844246 0)
(0.832105 0.856216 0)
(0.819794 0.868011 0)
(0.807316 0.879628 0)
(0.794673 0.891067 0)
(0.781868 0.902323 0)
(0.768903 0.913396 0)
(0.755782 0.924282 0)
(0.742507 0.93498 0)
(0.72908 0.945488 0)
(0.715504 0.955802 0)
(0.701783 0.965922 0)
(0.687919 0.975844 0)
(0.673914 0.985568 0)
(0.659772 0.995091 0)
(0.645495 1.00441 0)
(0.631087 1.01353 0)
(0.61655 1.02243 0)
(0.601887 1.03113 0)
(0.587102 1.03962 0)
(0.572197 1.0479 0)
(0.557175 1.05596 0)
(0.54204 1.06381 0)
(0.526794 1.07144 0)
(0.51144 1.07886 0)
(0.495983 1.08605 0)
(0.480424 1.09302 0)
(0.464767 1.09977 0)
(0.449015 1.1063 0)
(0.433172 1.11259 0)
(0.417241 1.11867 0)
(0.401224 1.12451 0)
(0.385126 1.13012 0)
(0.368949 1.13551 0)
(0.352697 1.14066 0)
(0.336373 1.14558 0)
(0.319981 1.15027 0)
(0.303523 1.15472 0)
(0.287003 1.15894 0)
(0.270425 1.16292 0)
(0.253791 1.16666 0)
(0.237106 1.17016 0)
(0.220373 1.17343 0)
(0.203594 1.17646 0)
(0.186774 1.17925 0)
(0.169916 1.18179 0)
(0.153023 1.1841 0)
(0.136099 1.18616 0)
(0.119148 1.18798 0)
(0.102172 1.18957 0)
(0.085175 1.1909 0)
(0.0681609 1.192 0)
(0.0511328 1.19285 0)
(0.0340943 1.19346 0)
(0.0170489 1.19382 0)
(1.18451 0.016916 0)
(1.18415 0.0338285 0)
(1.18355 0.0507341 0)
(1.1827 0.0676293 0)
(1.18162 0.0845108 0)
(1.18029 0.101375 0)
(1.17872 0.118219 0)
(1.17691 0.135038 0)
(1.17486 0.15183 0)
(1.17258 0.168591 0)
(1.17005 0.185318 0)
(1.16728 0.202006 0)
(1.16428 0.218654 0)
(1.16104 0.235257 0)
(1.15756 0.251812 0)
(1.15385 0.268316 0)
(1.1499 0.284765 0)
(1.14572 0.301156 0)
(1.1413 0.317485 0)
(1.13665 0.33375 0)
(1.13177 0.349947 0)
(1.12665 0.366072 0)
(1.12131 0.382123 0)
(1.11574 0.398096 0)
(1.10994 0.413987 0)
(1.10392 0.429794 0)
(1.09767 0.445514 0)
(1.09119 0.461143 0)
(1.0845 0.476677 0)
(1.07758 0.492115 0)
(1.07044 0.507452 0)
(1.06309 0.522686 0)
(1.05552 0.537813 0)
(1.04773 0.55283 0)
(1.03973 0.567735 0)
(1.03152 0.582524 0)
(1.02309 0.597194 0)
(1.01446 0.611742 0)
(1.00562 0.626166 0)
(0.996578 0.640461 0)
(0.98733 0.654627 0)
(0.977882 0.668659 0)
(0.968234 0.682554 0)
(0.958389 0.69631 0)
(0.948348 0.709925 0)
(0.938114 0.723394 0)
(0.927689 0.736716 0)
(0.917074 0.749888 0)
(0.906273 0.762907 0)
(0.895287 0.77577 0)
(0.884118 0.788475 0)
(0.872769 0.80102 0)
(0.861241 0.813401 0)
(0.849539 0.825616 0)
(0.837663 0.837663 0)
(0.825616 0.849539 0)
(0.813401 0.861241 0)
(0.80102 0.872769 0)
(0.788475 0.884118 0)
(0.77577 0.895287 0)
(0.762907 0.906273 0)
(0.749888 0.917074 0)
(0.736716 0.927689 0)
(0.723394 0.938114 0)
(0.709925 0.948348 0)
(0.69631 0.958389 0)
(0.682554 0.968234 0)
(0.668659 0.977882 0)
(0.654627 0.98733 0)
(0.640461 0.996578 0)
(0.626166 1.00562 0)
(0.611742 1.01446 0)
(0.597194 1.02309 0)
(0.582524 1.03152 0)
(0.567735 1.03973 0)
(0.55283 1.04773 0)
(0.537813 1.05552 0)
(0.522686 1.06309 0)
(0.507452 1.07044 0)
(0.492115 1.07758 0)
(0.476677 1.0845 0)
(0.461143 1.09119 0)
(0.445514 1.09767 0)
(0.429794 1.10392 0)
(0.413987 1.10994 0)
(0.398096 1.11574 0)
(0.382123 1.12131 0)
(0.366072 1.12665 0)
(0.349947 1.13177 0)
(0.33375 1.13665 0)
(0.317485 1.1413 0)
(0.301156 1.14572 0)
(0.284765 1.1499 0)
(0.268316 1.15385 0)
(0.251812 1.15756 0)
(0.235257 1.16104 0)
(0.218654 1.16428 0)
(0.202006 1.16728 0)
(0.185318 1.17005 0)
(0.168591 1.17258 0)
(0.15183 1.17486 0)
(0.135038 1.17691 0)
(0.118219 1.17872 0)
(0.101375 1.18029 0)
(0.0845108 1.18162 0)
(0.0676293 1.1827 0)
(0.0507341 1.18355 0)
(0.0338285 1.18415 0)
(0.016916 1.18451 0)
(1.17552 0.0167875 0)
(1.17516 0.0335717 0)
(1.17456 0.0503489 0)
(1.17372 0.0671159 0)
(1.17265 0.0838693 0)
(1.17133 0.100605 0)
(1.16977 0.117321 0)
(1.16798 0.134013 0)
(1.16595 0.150677 0)
(1.16367 0.167311 0)
(1.16117 0.183911 0)
(1.15842 0.200473 0)
(1.15544 0.216994 0)
(1.15223 0.233471 0)
(1.14877 0.2499 0)
(1.14509 0.266279 0)
(1.14117 0.282603 0)
(1.13702 0.298869 0)
(1.13263 0.315075 0)
(1.12802 0.331216 0)
(1.12317 0.34729 0)
(1.1181 0.363293 0)
(1.1128 0.379222 0)
(1.10727 0.395073 0)
(1.10152 0.410844 0)
(1.09554 0.426532 0)
(1.08934 0.442132 0)
(1.08291 0.457642 0)
(1.07627 0.473059 0)
(1.0694 0.488379 0)
(1.06232 0.5036 0)
(1.05502 0.518718 0)
(1.0475 0.53373 0)
(1.03978 0.548633 0)
(1.03184 0.563425 0)
(1.02368 0.578101 0)
(1.01533 0.59266 0)
(1.00676 0.607098 0)
(0.997987 0.621412 0)
(0.989012 0.635599 0)
(0.979835 0.649657 0)
(0.970459 0.663583 0)
(0.960884 0.677373 0)
(0.951113 0.691024 0)
(0.941149 0.704535 0)
(0.930993 0.717903 0)
(0.920646 0.731124 0)
(0.910113 0.744195 0)
(0.899393 0.757115 0)
(0.88849 0.769881 0)
(0.877406 0.78249 0)
(0.866143 0.794939 0)
(0.854703 0.807226 0)
(0.843089 0.819348 0)
(0.831304 0.831304 0)
(0.819348 0.843089 0)
(0.807226 0.854703 0)
(0.794939 0.866143 0)
(0.78249 0.877406 0)
(0.769881 0.88849 0)
(0.757115 0.899393 0)
(0.744195 0.910113 0)
(0.731124 0.920646 0)
(0.717903 0.930993 0)
(0.704535 0.941149 0)
(0.691024 0.951113 0)
(0.677373 0.960884 0)
(0.663583 0.970459 0)
(0.649657 0.979835 0)
(0.635599 0.989012 0)
(0.621412 0.997987 0)
(0.607098 1.00676 0)
(0.59266 1.01533 0)
(0.578101 1.02368 0)
(0.563425 1.03184 0)
(0.548633 1.03978 0)
(0.53373 1.0475 0)
(0.518718 1.05502 0)
(0.5036 1.06232 0)
(0.488379 1.0694 0)
(0.473059 1.07627 0)
(0.457642 1.08291 0)
(0.442132 1.08934 0)
(0.426532 1.09554 0)
(0.410844 1.10152 0)
(0.395073 1.10727 0)
(0.379222 1.1128 0)
(0.363293 1.1181 0)
(0.34729 1.12317 0)
(0.331216 1.12802 0)
(0.315075 1.13263 0)
(0.298869 1.13702 0)
(0.282603 1.14117 0)
(0.266279 1.14509 0)
(0.2499 1.14877 0)
(0.233471 1.15223 0)
(0.216994 1.15544 0)
(0.200473 1.15842 0)
(0.183911 1.16117 0)
(0.167311 1.16367 0)
(0.150677 1.16595 0)
(0.134013 1.16798 0)
(0.117321 1.16977 0)
(0.100605 1.17133 0)
(0.0838693 1.17265 0)
(0.0671159 1.17372 0)
(0.0503489 1.17456 0)
(0.0335717 1.17516 0)
(0.0167875 1.17552 0)
(1.16673 0.0166621 0)
(1.16638 0.0333207 0)
(1.16578 0.0499726 0)
(1.16495 0.0666143 0)
(1.16388 0.0832424 0)
(1.16257 0.0998535 0)
(1.16103 0.116444 0)
(1.15925 0.133011 0)
(1.15723 0.149551 0)
(1.15498 0.166061 0)
(1.15249 0.182536 0)
(1.14976 0.198974 0)
(1.1468 0.215372 0)
(1.14361 0.231726 0)
(1.14019 0.248032 0)
(1.13653 0.264288 0)
(1.13264 0.280491 0)
(1.12852 0.296635 0)
(1.12417 0.31272 0)
(1.11959 0.328741 0)
(1.11478 0.344694 0)
(1.10974 0.360577 0)
(1.10448 0.376387 0)
(1.09899 0.39212 0)
(1.09328 0.407773 0)
(1.08735 0.423343 0)
(1.08119 0.438827 0)
(1.07482 0.454221 0)
(1.06822 0.469523 0)
(1.06141 0.484728 0)
(1.05438 0.499835 0)
(1.04713 0.51484 0)
(1.03967 0.52974 0)
(1.032 0.544532 0)
(1.02412 0.559213 0)
(1.01603 0.57378 0)
(1.00774 0.58823 0)
(0.999234 0.60256 0)
(0.990528 0.616767 0)
(0.981619 0.630848 0)
(0.972511 0.644801 0)
(0.963205 0.658622 0)
(0.953702 0.672309 0)
(0.944004 0.685859 0)
(0.934114 0.699269 0)
(0.924034 0.712536 0)
(0.913765 0.725659 0)
(0.90331 0.738633 0)
(0.89267 0.751456 0)
(0.881849 0.764126 0)
(0.870848 0.776641 0)
(0.859669 0.788997 0)
(0.848315 0.801192 0)
(0.836788 0.813224 0)
(0.82509 0.82509 0)
(0.813224 0.836788 0)
(0.801192 0.848315 0)
(0.788997 0.859669 0)
(0.776641 0.870848 0)
(0.764126 0.881849 0)
(0.751456 0.89267 0)
(0.738633 0.90331 0)
(0.725659 0.913765 0)
(0.712536 0.924034 0)
(0.699269 0.934114 0)
(0.685859 0.944004 0)
(0.672309 0.953702 0)
(0.658622 0.963205 0)
(0.644801 0.972511 0)
(0.630848 0.981619 0)
(0.616767 0.990528 0)
(0.60256 0.999234 0)
(0.58823 1.00774 0)
(0.57378 1.01603 0)
(0.559213 1.02412 0)
(0.544532 1.032 0)
(0.52974 1.03967 0)
(0.51484 1.04713 0)
(0.499835 1.05438 0)
(0.484728 1.06141 0)
(0.469523 1.06822 0)
(0.454221 1.07482 0)
(0.438827 1.08119 0)
(0.423343 1.08735 0)
(0.407773 1.09328 0)
(0.39212 1.09899 0)
(0.376387 1.10448 0)
(0.360577 1.10974 0)
(0.344694 1.11478 0)
(0.328741 1.11959 0)
(0.31272 1.12417 0)
(0.296635 1.12852 0)
(0.280491 1.13264 0)
(0.264288 1.13653 0)
(0.248032 1.14019 0)
(0.231726 1.14361 0)
(0.215372 1.1468 0)
(0.198974 1.14976 0)
(0.182536 1.15249 0)
(0.166061 1.15498 0)
(0.149551 1.15723 0)
(0.133011 1.15925 0)
(0.116444 1.16103 0)
(0.0998535 1.16257 0)
(0.0832424 1.16388 0)
(0.0666143 1.16495 0)
(0.0499726 1.16578 0)
(0.0333207 1.16638 0)
(0.0166621 1.16673 0)
(1.1582 0.0165402 0)
(1.15785 0.0330771 0)
(1.15726 0.0496072 0)
(1.15643 0.0661272 0)
(1.15537 0.0826337 0)
(1.15407 0.0991234 0)
(1.15254 0.115593 0)
(1.15077 0.132039 0)
(1.14877 0.148458 0)
(1.14653 0.164846 0)
(1.14406 0.181201 0)
(1.14136 0.19752 0)
(1.13842 0.213797 0)
(1.13525 0.230032 0)
(1.13185 0.246219 0)
(1.12822 0.262356 0)
(1.12436 0.27844 0)
(1.12027 0.294467 0)
(1.11595 0.310433 0)
(1.1114 0.326337 0)
(1.10663 0.342174 0)
(1.10163 0.357941 0)
(1.09641 0.373635 0)
(1.09096 0.389253 0)
(1.08529 0.404792 0)
(1.0794 0.420248 0)
(1.07329 0.435618 0)
(1.06696 0.4509 0)
(1.06041 0.46609 0)
(1.05365 0.481184 0)
(1.04667 0.496181 0)
(1.03948 0.511076 0)
(1.03207 0.525867 0)
(1.02446 0.540551 0)
(1.01663 0.555124 0)
(1.0086 0.569585 0)
(1.00037 0.583929 0)
(0.991927 0.598154 0)
(0.983285 0.612257 0)
(0.974442 0.626236 0)
(0.9654 0.640087 0)
(0.956162 0.653807 0)
(0.946728 0.667394 0)
(0.937102 0.680844 0)
(0.927284 0.694156 0)
(0.917277 0.707327 0)
(0.907084 0.720353 0)
(0.896705 0.733232 0)
(0.886143 0.745962 0)
(0.875401 0.758539 0)
(0.86448 0.770962 0)
(0.853383 0.783228 0)
(0.842112 0.795334 0)
(0.830669 0.807278 0)
(0.819057 0.819057 0)
(0.807278 0.830669 0)
(0.795334 0.842112 0)
(0.783228 0.853383 0)
(0.770962 0.86448 0)
(0.758539 0.875401 0)
(0.745962 0.886143 0)
(0.733232 0.896705 0)
(0.720353 0.907084 0)
(0.707327 0.917277 0)
(0.694156 0.927284 0)
(0.680844 0.937102 0)
(0.667394 0.946728 0)
(0.653807 0.956162 0)
(0.640087 0.9654 0)
(0.626236 0.974442 0)
(0.612257 0.983285 0)
(0.598154 0.991927 0)
(0.583929 1.00037 0)
(0.569585 1.0086 0)
(0.555124 1.01663 0)
(0.540551 1.02446 0)
(0.525867 1.03207 0)
(0.511076 1.03948 0)
(0.496181 1.04667 0)
(0.481184 1.05365 0)
(0.46609 1.06041 0)
(0.4509 1.06696 0)
(0.435618 1.07329 0)
(0.420248 1.0794 0)
(0.404792 1.08529 0)
(0.389253 1.09096 0)
(0.373635 1.09641 0)
(0.357941 1.10163 0)
(0.342174 1.10663 0)
(0.326337 1.1114 0)
(0.310433 1.11595 0)
(0.294467 1.12027 0)
(0.27844 1.12436 0)
(0.262356 1.12822 0)
(0.246219 1.13185 0)
(0.230032 1.13525 0)
(0.213797 1.13842 0)
(0.19752 1.14136 0)
(0.181201 1.14406 0)
(0.164846 1.14653 0)
(0.148458 1.14877 0)
(0.132039 1.15077 0)
(0.115593 1.15254 0)
(0.0991234 1.15407 0)
(0.0826337 1.15537 0)
(0.0661272 1.15643 0)
(0.0496072 1.15726 0)
(0.0330771 1.15785 0)
(0.0165402 1.1582 0)
(1.14989 0.0164215 0)
(1.14954 0.0328397 0)
(1.14895 0.0492511 0)
(1.14813 0.0656526 0)
(1.14708 0.0820406 0)
(1.14579 0.0984119 0)
(1.14427 0.114763 0)
(1.14251 0.131091 0)
(1.14052 0.147392 0)
(1.1383 0.163663 0)
(1.13585 0.179901 0)
(1.13316 0.196102 0)
(1.13025 0.212263 0)
(1.1271 0.228381 0)
(1.12373 0.244452 0)
(1.12012 0.260473 0)
(1.11629 0.276441 0)
(1.11223 0.292353 0)
(1.10794 0.308205 0)
(1.10342 0.323995 0)
(1.09869 0.339718 0)
(1.09372 0.355372 0)
(1.08854 0.370953 0)
(1.08313 0.386459 0)
(1.0775 0.401886 0)
(1.07165 0.417232 0)
(1.06558 0.432492 0)
(1.0593 0.447664 0)
(1.0528 0.462744 0)
(1.04608 0.47773 0)
(1.03916 0.492619 0)
(1.03202 0.507408 0)
(1.02466 0.522093 0)
(1.0171 0.536671 0)
(1.00934 0.55114 0)
(1.00136 0.565497 0)
(0.993188 0.579738 0)
(0.984808 0.593861 0)
(0.976228 0.607863 0)
(0.967448 0.621741 0)
(0.958471 0.635492 0)
(0.949299 0.649114 0)
(0.939933 0.662603 0)
(0.930376 0.675958 0)
(0.920629 0.689174 0)
(0.910694 0.70225 0)
(0.900573 0.715182 0)
(0.890269 0.727969 0)
(0.879783 0.740608 0)
(0.869118 0.753095 0)
(0.858275 0.765429 0)
(0.847258 0.777606 0)
(0.836068 0.789625 0)
(0.824707 0.801484 0)
(0.813178 0.813178 0)
(0.801484 0.824707 0)
(0.789625 0.836068 0)
(0.777606 0.847258 0)
(0.765429 0.858275 0)