/*--------------------------------*- C++ -*----------------------------------*\
| =========                 |                                                 |
| \\      /  F ield         | OpenFOAM: The Open Source CFD Toolbox           |
|  \\    /   O peration     | Version:  2312                                  |
|   \\  /    A nd           | Website:  www.openfoam.com                      |
|    \\/     M anipulation  |                                                 |
\*---------------------------------------------------------------------------*/
FoamFile
{
    version     2.0;
    format      ascii;
    arch        "LSB;label=32;scalar=64";
    class       volSymmTensorField;
    location    "40";
    object      sigma;
}
// * * * * * * * * * * * * * * * * * * * * * * * * * * * * * * * * * * * * * //

dimensions      [1 -1 -2 0 0 0 0];

internalField   nonuniform List<symmTensor> 
12870
(
(-3.92137e+07 -710293 4.36199e-12 6.02607e+07 -1.62328e-09 -4.02815e+06)
(-3.91731e+07 -2.1303e+06 -1.04322e-09 6.02201e+07 7.8947e-10 -4.02815e+06)
(-3.9092e+07 -3.54857e+06 1.49282e-09 6.0139e+07 1.67762e-09 -4.02815e+06)
(-3.89704e+07 -4.96395e+06 4.4158e-11 6.00174e+07 -8.10439e-10 -4.02815e+06)
(-3.88085e+07 -6.37527e+06 -5.69504e-10 5.98555e+07 7.76665e-10 -4.02815e+06)
(-3.86063e+07 -7.7814e+06 1.55417e-09 5.96533e+07 1.22316e-10 -4.02815e+06)
(-3.83641e+07 -9.18118e+06 -4.40995e-10 5.94111e+07 -8.56193e-10 -4.02815e+06)
(-3.8082e+07 -1.05735e+07 9.54989e-10 5.9129e+07 9.18982e-10 -4.02815e+06)
(-3.77602e+07 -1.19571e+07 -1.96548e-10 5.88072e+07 1.61132e-09 -4.02815e+06)
(-3.73991e+07 -1.33311e+07 9.21195e-10 5.84461e+07 9.44901e-10 -4.02815e+06)
(-3.69989e+07 -1.46941e+07 1.15009e-09 5.80458e+07 -6.47095e-10 -4.02815e+06)
(-3.65599e+07 -1.60452e+07 1.03867e-09 5.76069e+07 -3.11869e-09 -4.02815e+06)
(-3.60825e+07 -1.73831e+07 -2.03375e-09 5.71295e+07 -3.6693e-10 -4.02815e+06)
(-3.55671e+07 -1.87069e+07 -5.33681e-10 5.66141e+07 -1.04176e-10 -4.02815e+06)
(-3.50141e+07 -2.00155e+07 -8.37292e-10 5.60611e+07 -1.00524e-09 -4.02815e+06)
(-3.4424e+07 -2.13077e+07 -1.55674e-09 5.54709e+07 2.14548e-09 -4.02815e+06)
(-3.37972e+07 -2.25825e+07 -1.92986e-10 5.48442e+07 7.88364e-10 -4.02815e+06)
(-3.31342e+07 -2.38389e+07 5.05852e-10 5.41812e+07 1.29111e-10 -4.02815e+06)
(-3.24357e+07 -2.50759e+07 7.12399e-10 5.34827e+07 -6.48098e-10 -4.02815e+06)
(-3.17021e+07 -2.62924e+07 2.26572e-10 5.27491e+07 -7.79376e-10 -4.02815e+06)
(-3.09341e+07 -2.74875e+07 0 5.1981e+07 0 -4.02815e+06)
(-3.01322e+07 -2.86601e+07 -7.39502e-10 5.11792e+07 6.16993e-10 -4.02815e+06)
(-2.92972e+07 -2.98094e+07 -5.12627e-10 5.03442e+07 1.5402e-09 -4.02815e+06)
(-2.84297e+07 -3.09344e+07 7.49994e-10 4.94767e+07 -5.98005e-10 -4.02815e+06)
(-2.75305e+07 -3.20341e+07 7.27476e-11 4.85775e+07 -1.7014e-09 -4.02815e+06)
(-2.66002e+07 -3.31077e+07 4.0431e-10 4.76472e+07 1.89127e-09 -4.02815e+06)
(-2.56396e+07 -3.41543e+07 1.54983e-09 4.66866e+07 -1.13067e-09 -4.02815e+06)
(-2.46496e+07 -3.51731e+07 -3.23426e-10 4.56966e+07 -1.89098e-09 -4.02815e+06)
(-2.36308e+07 -3.61631e+07 -4.92702e-10 4.46778e+07 -2.12376e-10 -4.02815e+06)
(-2.25842e+07 -3.71237e+07 -2.07326e-09 4.36312e+07 8.49782e-10 -4.02815e+06)
(-2.15106e+07 -3.8054e+07 -4.36156e-10 4.25576e+07 3.37787e-09 -4.02815e+06)
(-2.04109e+07 -3.89532e+07 6.99291e-10 4.14579e+07 -1.46494e-09 -4.02815e+06)
(-1.92859e+07 -3.98207e+07 -9.38507e-11 4.03329e+07 -9.54617e-10 -4.02815e+06)
(-1.81366e+07 -4.06557e+07 -8.40299e-10 3.91836e+07 4.78528e-10 -4.02815e+06)
(-1.6964e+07 -4.14576e+07 8.40678e-10 3.8011e+07 -4.69899e-10 -4.02815e+06)
(-1.57689e+07 -4.22256e+07 -5.92006e-11 3.68159e+07 -9.61269e-10 -4.02815e+06)
(-1.45524e+07 -4.29592e+07 8.02017e-10 3.55994e+07 -1.41132e-09 -4.02815e+06)
(-1.33154e+07 -4.36577e+07 -6.34527e-11 3.43624e+07 -1.92514e-09 -4.02815e+06)
(-1.2059e+07 -4.43207e+07 -2.62254e-09 3.3106e+07 2.96718e-10 -4.02815e+06)
(-1.07842e+07 -4.49475e+07 -2.61806e-09 3.18312e+07 2.1854e-09 -4.02815e+06)
(-9.49197e+06 -4.55376e+07 8.62226e-10 3.0539e+07 5.62858e-10 -4.02815e+06)
(-8.18343e+06 -4.60906e+07 1.19913e-11 2.92304e+07 8.0744e-12 -4.02815e+06)
(-6.85964e+06 -4.6606e+07 -7.40465e-11 2.79066e+07 1.92476e-09 -4.02815e+06)
(-5.52166e+06 -4.70834e+07 9.38853e-10 2.65687e+07 -1.32424e-09 -4.02815e+06)
(-4.17061e+06 -4.75223e+07 -4.08526e-10 2.52176e+07 -3.01292e-10 -4.02815e+06)
(-2.80756e+06 -4.79226e+07 -1.5641e-10 2.38546e+07 1.91982e-09 -4.02815e+06)
(-1.43365e+06 -4.82837e+07 0 2.24806e+07 0 -4.02815e+06)
(-49979.5 -4.86055e+07 1.41943e-09 2.1097e+07 -9.40896e-10 -4.02815e+06)
(1.34231e+06 -4.88876e+07 2.07299e-09 1.97047e+07 -2.49854e-09 -4.02815e+06)
(2.74209e+06 -4.91298e+07 -1.31229e-10 1.83049e+07 -2.24682e-09 -4.02815e+06)
(4.14822e+06 -4.9332e+07 -1.17631e-09 1.68988e+07 -1.03407e-09 -4.02815e+06)
(5.55955e+06 -4.94939e+07 -2.78695e-09 1.54874e+07 7.6211e-10 -4.02815e+06)
(6.97492e+06 -4.96155e+07 -7.34604e-10 1.40721e+07 1.53396e-09 -4.02815e+06)
(8.39319e+06 -4.96966e+07 -7.48741e-10 1.26538e+07 -7.17333e-10 -4.02815e+06)
(9.8132e+06 -4.97372e+07 -1.51138e-09 1.12338e+07 7.89475e-10 -4.02815e+06)
(1.12338e+07 -4.97372e+07 2.03644e-09 9.8132e+06 9.09619e-10 -4.02815e+06)
(1.26538e+07 -4.96966e+07 1.00009e-11 8.39319e+06 1.04388e-11 -4.02815e+06)
(1.40721e+07 -4.96155e+07 1.17328e-09 6.97492e+06 -1.12199e-09 -4.02815e+06)
(1.54874e+07 -4.94939e+07 -1.03137e-09 5.55955e+06 -1.13998e-09 -4.02815e+06)
(1.68988e+07 -4.9332e+07 -5.44097e-10 4.14822e+06 1.83966e-09 -4.02815e+06)
(1.83049e+07 -4.91298e+07 -9.44491e-10 2.74209e+06 1.4387e-10 -4.02815e+06)
(1.97047e+07 -4.88876e+07 1.56416e-09 1.34231e+06 -6.5696e-10 -4.02815e+06)
(2.1097e+07 -4.86055e+07 -3.30365e-10 -49979.4 -1.70346e-09 -4.02815e+06)
(2.24806e+07 -4.82837e+07 -1.28519e-09 -1.43365e+06 2.30865e-09 -4.02815e+06)
(2.38546e+07 -4.79226e+07 3.20213e-10 -2.80756e+06 4.21449e-10 -4.02815e+06)
(2.52176e+07 -4.75223e+07 -4.29028e-12 -4.17061e+06 -5.81725e-12 -4.02815e+06)
(2.65687e+07 -4.70834e+07 9.65959e-10 -5.52166e+06 -4.48838e-11 -4.02815e+06)
(2.79066e+07 -4.6606e+07 3.66883e-10 -6.85964e+06 -8.947e-10 -4.02815e+06)
(2.92304e+07 -4.60906e+07 2.01768e-09 -8.18343e+06 -1.36297e-09 -4.02815e+06)
(3.0539e+07 -4.55376e+07 -2.48895e-09 -9.49197e+06 -8.43173e-10 -4.02815e+06)
(3.18312e+07 -4.49475e+07 -1.10429e-09 -1.07842e+07 1.2907e-09 -4.02815e+06)
(3.3106e+07 -4.43207e+07 1.38784e-09 -1.2059e+07 -8.41991e-10 -4.02815e+06)
(3.43624e+07 -4.36577e+07 -8.59552e-10 -1.33154e+07 1.73249e-09 -4.02815e+06)
(3.55994e+07 -4.29592e+07 -7.09258e-10 -1.45524e+07 3.9474e-10 -4.02815e+06)
(3.68159e+07 -4.22256e+07 1.41912e-09 -1.57689e+07 -7.88101e-10 -4.02815e+06)
(3.8011e+07 -4.14576e+07 4.69899e-10 -1.6964e+07 -8.40678e-10 -4.02815e+06)
(3.91836e+07 -4.06557e+07 -2.40329e-10 -1.81366e+07 -4.63463e-10 -4.02815e+06)
(4.03329e+07 -3.98207e+07 -7.24165e-10 -1.92859e+07 3.66533e-10 -4.02815e+06)
(4.14579e+07 -3.89532e+07 6.77848e-10 -2.04109e+07 1.4039e-09 -4.02815e+06)
(4.25576e+07 -3.8054e+07 3.04957e-12 -2.15106e+07 6.55339e-12 -4.02815e+06)
(4.36312e+07 -3.71237e+07 1.68892e-09 -2.25842e+07 -2.00535e-10 -4.02815e+06)
(4.46778e+07 -3.61631e+07 -1.89254e-09 -2.36308e+07 -2.89753e-10 -4.02815e+06)
(4.56966e+07 -3.51731e+07 5.85531e-10 -2.46496e+07 1.4136e-09 -4.02815e+06)
(4.66866e+07 -3.41543e+07 1.69334e-09 -2.56396e+07 -2.33147e-09 -4.02815e+06)
(4.76472e+07 -3.31077e+07 -1.5194e-09 -2.66002e+07 5.71364e-10 -4.02815e+06)
(4.85775e+07 -3.20341e+07 -7.61226e-10 -2.75305e+07 2.81595e-10 -4.02815e+06)
(4.94767e+07 -3.09344e+07 -1.36079e-09 -2.84297e+07 1.02752e-09 -4.02815e+06)
(5.03442e+07 -2.98094e+07 2.46946e-09 -2.92972e+07 -2.90734e-10 -4.02815e+06)
(5.11792e+07 -2.86601e+07 8.738e-12 -3.01322e+07 2.75608e-11 -4.02815e+06)
(5.1981e+07 -2.74875e+07 -1.40981e-09 -3.09341e+07 9.47532e-10 -4.02815e+06)
(5.27491e+07 -2.62924e+07 -1.3953e-10 -3.17021e+07 -4.88059e-10 -4.02815e+06)
(5.34827e+07 -2.50759e+07 2.68867e-10 -3.24357e+07 9.93959e-10 -4.02815e+06)
(5.41812e+07 -2.38389e+07 3.14569e-09 -3.31342e+07 -8.02889e-10 -4.02815e+06)
(5.48442e+07 -2.25825e+07 -1.8171e-09 -3.37972e+07 -6.15259e-10 -4.02815e+06)
(5.54709e+07 -2.13077e+07 -3.1705e-09 -3.4424e+07 6.98629e-10 -4.02815e+06)
(5.60611e+07 -2.00155e+07 2.01642e-09 -3.50141e+07 1.70288e-09 -4.02815e+06)
(5.66141e+07 -1.87069e+07 6.98653e-10 -3.55671e+07 -6.57255e-10 -4.02815e+06)
(5.71295e+07 -1.73831e+07 -1.59747e-09 -3.60825e+07 2.88216e-10 -4.02815e+06)
(5.76069e+07 -1.60452e+07 8.8429e-10 -3.65599e+07 3.71661e-10 -4.02815e+06)
(5.80458e+07 -1.46941e+07 3.13212e-09 -3.69989e+07 -1.00117e-09 -4.02815e+06)
(5.84461e+07 -1.33311e+07 -8.01732e-10 -3.73991e+07 1.27673e-10 -4.02815e+06)
(5.88072e+07 -1.19571e+07 -2.48151e-09 -3.77602e+07 -2.34168e-10 -4.02815e+06)
(5.9129e+07 -1.05735e+07 0 -3.8082e+07 0 -4.02815e+06)
(5.94111e+07 -9.18118e+06 8.07804e-10 -3.83641e+07 -7.8826e-11 -4.02815e+06)
(5.96533e+07 -7.7814e+06 2.42711e-09 -3.86063e+07 -1.94643e-10 -4.02815e+06)
(5.98555e+07 -6.37527e+06 -8.75847e-10 -3.88085e+07 -9.7183e-10 -4.02815e+06)
(6.00174e+07 -4.96395e+06 -1.59588e-09 -3.89704e+07 5.88075e-10 -4.02815e+06)
(6.0139e+07 -3.54857e+06 2.43322e-09 -3.9092e+07 -9.0519e-11 -4.02815e+06)
(6.02201e+07 -2.1303e+06 -2.2054e-11 -3.91731e+07 -1.02944e-09 -4.02815e+06)
(6.02607e+07 -710293 -1.62328e-09 -3.92137e+07 4.36198e-12 -4.02815e+06)
(-3.83981e+07 -695712 -5.1842e-10 5.90343e+07 -3.70157e-12 -3.90486e+06)
(-3.83583e+07 -2.08657e+06 -1.00042e-09 5.89945e+07 -1.59156e-09 -3.90486e+06)
(-3.82789e+07 -3.47573e+06 -3.82379e-13 5.89151e+07 -1.36515e-14 -3.90486e+06)
(-3.81598e+07 -4.86205e+06 -1.21122e-10 5.8796e+07 2.35154e-09 -3.90486e+06)
(-3.80012e+07 -6.2444e+06 -9.43082e-10 5.86374e+07 -1.6337e-09 -3.90486e+06)
(-3.78032e+07 -7.62166e+06 5.23412e-10 5.84394e+07 4.11934e-11 -3.90486e+06)
(-3.75659e+07 -8.99271e+06 -1.609e-11 5.82021e+07 -1.49776e-12 -3.90486e+06)
(-3.72896e+07 -1.03564e+07 1.13134e-11 5.79258e+07 1.21632e-12 -3.90486e+06)
(-3.69745e+07 -1.17117e+07 -7.18547e-10 5.76106e+07 1.49376e-09 -3.90486e+06)
(-3.66207e+07 -1.30574e+07 6.13805e-10 5.72569e+07 -7.0838e-10 -3.90486e+06)
(-3.62287e+07 -1.43925e+07 -9.45471e-12 5.68649e+07 -1.42836e-12 -3.90486e+06)
(-3.57987e+07 -1.57158e+07 1.27991e-09 5.64349e+07 1.80327e-09 -3.90486e+06)
(-3.53312e+07 -1.70263e+07 -1.28716e-09 5.59673e+07 1.36289e-09 -3.90486e+06)
(-3.48263e+07 -1.83229e+07 -2.10239e-10 5.54625e+07 -1.64044e-09 -3.90486e+06)
(-3.42847e+07 -1.96046e+07 -1.49906e-09 5.49209e+07 -3.14907e-10 -3.90486e+06)
(-3.37067e+07 -2.08703e+07 -1.73197e-10 5.43429e+07 7.65538e-10 -3.90486e+06)
(-3.30928e+07 -2.21189e+07 3.66456e-10 5.37289e+07 -1.5264e-09 -3.90486e+06)
(-3.24434e+07 -2.33496e+07 6.95185e-10 5.30796e+07 -6.32612e-10 -3.90486e+06)
(-3.17592e+07 -2.45611e+07 -5.05062e-10 5.23954e+07 -1.3662e-10 -3.90486e+06)
(-3.10407e+07 -2.57527e+07 -9.96926e-10 5.16769e+07 -2.85008e-10 -3.90486e+06)
(-3.02884e+07 -2.69232e+07 -2.23157e-10 5.09246e+07 7.52501e-10 -3.90486e+06)
(-2.9503e+07 -2.80718e+07 -1.22436e-09 5.01392e+07 4.35213e-10 -3.90486e+06)
(-2.86852e+07 -2.91975e+07 4.91903e-10 4.93214e+07 1.63721e-10 -3.90486e+06)
(-2.78355e+07 -3.02994e+07 4.85e-10 4.84717e+07 1.69154e-10 -3.90486e+06)
(-2.69547e+07 -3.13765e+07 3.14723e-10 4.75909e+07 -2.39166e-09 -3.90486e+06)
(-2.60435e+07 -3.24281e+07 -1.97535e-10 4.66797e+07 -9.15249e-10 -3.90486e+06)
(-2.51027e+07 -3.34532e+07 -1.13573e-10 4.57389e+07 1.64413e-09 -3.90486e+06)
(-2.41329e+07 -3.4451e+07 -2.20418e-09 4.47691e+07 -6.34486e-11 -3.90486e+06)
(-2.31351e+07 -3.54208e+07 -7.85589e-10 4.37713e+07 5.16073e-10 -3.90486e+06)
(-2.211e+07 -3.63616e+07 3.30851e-10 4.27462e+07 -7.11829e-10 -3.90486e+06)
(-2.10584e+07 -3.72728e+07 6.09748e-10 4.16946e+07 1.14945e-09 -3.90486e+06)
(-1.99813e+07 -3.81536e+07 5.83026e-10 4.06175e+07 1.15309e-09 -3.90486e+06)
(-1.88794e+07 -3.90033e+07 1.05171e-11 3.95156e+07 5.26451e-12 -3.90486e+06)
(-1.77537e+07 -3.98211e+07 3.56264e-10 3.83899e+07 -6.99395e-10 -3.90486e+06)
(-1.66051e+07 -4.06065e+07 3.7624e-10 3.72413e+07 -6.88855e-10 -3.90486e+06)
(-1.54346e+07 -4.13588e+07 -1.9226e-12 3.60708e+07 -1.06771e-12 -3.90486e+06)
(-1.4243e+07 -4.20773e+07 3.9385e-10 3.48792e+07 -6.78925e-10 -3.90486e+06)
(-1.30315e+07 -4.27615e+07 -1.6785e-09 3.36676e+07 8.29384e-10 -3.90486e+06)
(-1.18008e+07 -4.34108e+07 -1.69392e-09 3.2437e+07 8.03034e-10 -3.90486e+06)
(-1.05522e+07 -4.40248e+07 8.41413e-10 3.11884e+07 -1.32522e-09 -3.90486e+06)
(-9.28649e+06 -4.46028e+07 2.59241e-09 2.99227e+07 -1.82322e-10 -3.90486e+06)
(-8.00482e+06 -4.51444e+07 0 2.8641e+07 0 -3.90486e+06)
(-6.7082e+06 -4.56492e+07 -4.56932e-11 2.73444e+07 1.87932e-09 -3.90486e+06)
(-5.39769e+06 -4.61168e+07 -4.65313e-10 2.60339e+07 6.3217e-10 -3.90486e+06)
(-4.07437e+06 -4.65468e+07 9.3558e-10 2.47106e+07 -1.26051e-09 -3.90486e+06)
(-2.7393e+06 -4.69388e+07 -8.86913e-10 2.33755e+07 3.11867e-10 -3.90486e+06)
(-1.39359e+06 -4.72925e+07 3.24595e-10 2.20298e+07 1.25067e-09 -3.90486e+06)
(-38327.7 -4.76077e+07 9.8126e-10 2.06745e+07 -1.22529e-09 -3.90486e+06)
(1.32538e+06 -4.7884e+07 -7.92602e-10 1.93108e+07 -6.57606e-10 -3.90486e+06)
(2.69643e+06 -4.81213e+07 -5.0149e-10 1.79398e+07 6.0388e-10 -3.90486e+06)
(4.07369e+06 -4.83193e+07 -1.15734e-09 1.65625e+07 -1.0174e-09 -3.90486e+06)
(5.45605e+06 -4.84779e+07 -6.18707e-10 1.51801e+07 -1.6182e-09 -3.90486e+06)
(6.84237e+06 -4.8597e+07 -9.10109e-10 1.37938e+07 2.2506e-10 -3.90486e+06)
(8.23152e+06 -4.86764e+07 -1.83281e-09 1.24047e+07 4.17998e-10 -3.90486e+06)
(9.62238e+06 -4.87162e+07 2.19755e-09 1.10138e+07 -2.24223e-09 -3.90486e+06)
(1.10138e+07 -4.87162e+07 1.84709e-09 9.62238e+06 -3.62357e-10 -3.90486e+06)
(1.24047e+07 -4.86764e+07 -3.70164e-09 8.23152e+06 6.74513e-10 -3.90486e+06)
(1.37938e+07 -4.8597e+07 -2.28318e-10 6.84237e+06 9.0661e-10 -3.90486e+06)
(1.51801e+07 -4.84779e+07 -2.17575e-10 5.45605e+06 -2.5803e-09 -3.90486e+06)
(1.65625e+07 -4.83193e+07 6.82876e-10 4.07369e+06 7.76804e-10 -3.90486e+06)
(1.79398e+07 -4.81213e+07 -1.86395e-09 2.69643e+06 2.34681e-10 -3.90486e+06)
(1.93108e+07 -4.7884e+07 9.85585e-10 1.32538e+06 1.18791e-09 -3.90486e+06)
(2.06745e+07 -4.76077e+07 2.55386e-10 -38327.5 -2.18483e-09 -3.90486e+06)
(2.20298e+07 -4.72925e+07 9.33876e-10 -1.39359e+06 -8.02185e-11 -3.90486e+06)
(2.33755e+07 -4.69388e+07 -9.34946e-10 -2.7393e+06 1.36423e-09 -3.90486e+06)
(2.47106e+07 -4.65468e+07 1.22257e-09 -4.07437e+06 1.6577e-09 -3.90486e+06)
(2.60339e+07 -4.61168e+07 -2.96382e-10 -5.39769e+06 -4.14122e-10 -3.90486e+06)
(2.73444e+07 -4.56492e+07 -5.2352e-12 -6.7082e+06 -7.54013e-12 -3.90486e+06)
(2.8641e+07 -4.51444e+07 -5.71329e-10 -8.00482e+06 -8.48481e-10 -3.90486e+06)
(2.99227e+07 -4.46028e+07 -1.50269e-09 -9.28649e+06 -8.66073e-10 -3.90486e+06)
(3.11884e+07 -4.40248e+07 1.32404e-09 -1.05522e+07 -8.43272e-10 -3.90486e+06)
(3.2437e+07 -4.34108e+07 1.73497e-09 -1.18008e+07 -1.67532e-09 -3.90486e+06)
(3.36676e+07 -4.27615e+07 -1.8733e-09 -1.30315e+07 -8.09269e-11 -3.90486e+06)
(3.48792e+07 -4.20773e+07 -1.53438e-09 -1.4243e+07 2.05652e-09 -3.90486e+06)
(3.60708e+07 -4.13588e+07 9.39569e-10 -1.54346e+07 7.52189e-11 -3.90486e+06)
(3.72413e+07 -4.06065e+07 2.26127e-12 -1.66051e+07 4.21244e-12 -3.90486e+06)
(3.83899e+07 -3.98211e+07 6.9737e-10 -1.77537e+07 -3.60169e-10 -3.90486e+06)
(3.95156e+07 -3.90033e+07 2.10403e-09 -1.88794e+07 -1.05711e-09 -3.90486e+06)
(4.06175e+07 -3.81536e+07 2.2525e-10 -1.99813e+07 4.66518e-10 -3.90486e+06)
(4.16946e+07 -3.72728e+07 -9.88713e-10 -2.10584e+07 1.59602e-09 -3.90486e+06)
(4.27462e+07 -3.63616e+07 2.10037e-10 -2.211e+07 4.68746e-10 -3.90486e+06)
(4.37713e+07 -3.54208e+07 -6.1186e-10 -2.31351e+07 -1.41948e-09 -3.90486e+06)
(4.47691e+07 -3.4451e+07 -5.30897e-10 -2.41329e+07 7.69305e-10 -3.90486e+06)
(4.57389e+07 -3.34532e+07 2.7202e-12 -2.51027e+07 6.84189e-12 -3.90486e+06)
(4.66797e+07 -3.24281e+07 7.34664e-10 -2.60435e+07 -2.76272e-10 -3.90486e+06)
(4.75909e+07 -3.13765e+07 -1.77701e-10 -2.69547e+07 -4.87027e-10 -3.90486e+06)
(4.84717e+07 -3.02994e+07 -7.41529e-10 -2.78355e+07 2.57256e-10 -3.90486e+06)
(4.93214e+07 -2.91975e+07 1.64724e-09 -2.86852e+07 -2.16125e-11 -3.90486e+06)
(5.01392e+07 -2.80718e+07 6.32863e-12 -2.9503e+07 1.99613e-11 -3.90486e+06)
(5.09246e+07 -2.69232e+07 -2.10928e-09 -3.02884e+07 1.16127e-09 -3.90486e+06)
(5.16769e+07 -2.57527e+07 6.12502e-10 -3.10407e+07 -7.12967e-10 -3.90486e+06)
(5.23954e+07 -2.45611e+07 1.29756e-09 -3.17592e+07 1.79098e-09 -3.90486e+06)
(5.30796e+07 -2.33496e+07 -1.28212e-10 -3.24434e+07 -5.02329e-10 -3.90486e+06)
(5.37289e+07 -2.21189e+07 -1.76459e-09 -3.30928e+07 -6.25676e-10 -3.90486e+06)
(5.43429e+07 -2.08703e+07 1.64069e-09 -3.37067e+07 1.40734e-10 -3.90486e+06)
(5.49209e+07 -1.96046e+07 9.82373e-10 -3.42847e+07 8.58552e-10 -3.90486e+06)
(5.54625e+07 -1.83229e+07 -2.31213e-09 -3.48263e+07 4.45539e-10 -3.90486e+06)
(5.59673e+07 -1.70263e+07 0 -3.53312e+07 0 -3.90486e+06)
(5.64349e+07 -1.57158e+07 3.38237e-10 -3.57987e+07 2.04112e-09 -3.90486e+06)
(5.68649e+07 -1.43925e+07 2.32739e-09 -3.62287e+07 -3.5736e-10 -3.90486e+06)
(5.72569e+07 -1.30574e+07 -9.146e-10 -3.66207e+07 -8.96982e-10 -3.90486e+06)
(5.76106e+07 -1.17117e+07 -2.27609e-09 -3.69745e+07 7.87149e-10 -3.90486e+06)
(5.79258e+07 -1.03564e+07 7.25343e-10 -3.72896e+07 -5.95893e-10 -3.90486e+06)
(5.82021e+07 -8.99271e+06 7.33131e-10 -3.75659e+07 -5.92425e-10 -3.90486e+06)
(5.84394e+07 -7.62166e+06 7.42064e-10 -3.78032e+07 -5.74937e-10 -3.90486e+06)
(5.86374e+07 -6.2444e+06 -6.5969e-11 -3.80012e+07 -1.02518e-09 -3.90486e+06)
(5.8796e+07 -4.86205e+06 2.56616e-11 -3.81598e+07 5.13011e-10 -3.90486e+06)
(5.89151e+07 -3.47573e+06 0 -3.82789e+07 0 -3.90486e+06)
(5.89945e+07 -2.08657e+06 -2.20031e-11 -3.83583e+07 -1.02707e-09 -3.90486e+06)
(5.90343e+07 -695712 0 -3.83981e+07 0 -3.90486e+06)
(-3.72259e+07 -678313 6.71044e-12 5.77698e+07 -7.58314e-10 -3.78548e+06)
(-3.71871e+07 -2.03439e+06 6.66293e-12 5.7731e+07 1.42738e-13 -3.78548e+06)
(-3.71097e+07 -3.3888e+06 -2.02671e-09 5.76536e+07 -7.23841e-11 -3.78548e+06)
(-3.69936e+07 -4.74045e+06 -1.04424e-09 5.75375e+07 7.07056e-10 -3.78548e+06)
(-3.68389e+07 -6.08823e+06 1.51458e-09 5.73828e+07 9.7461e-11 -3.78548e+06)
(-3.66459e+07 -7.43105e+06 -8.79604e-10 5.71898e+07 -1.5906e-09 -3.78548e+06)
(-3.64145e+07 -8.76781e+06 -5.11223e-10 5.69584e+07 -4.75884e-11 -3.78548e+06)
(-3.61451e+07 -1.00974e+07 -1.15808e-09 5.6689e+07 1.40092e-09 -3.78548e+06)
(-3.58379e+07 -1.14188e+07 4.07911e-10 5.63817e+07 8.1372e-10 -3.78548e+06)
(-3.5493e+07 -1.27308e+07 1.01945e-09 5.60369e+07 1.39153e-10 -3.78548e+06)
(-3.51108e+07 -1.40325e+07 3.32518e-10 5.56547e+07 -2.25061e-09 -3.78548e+06)
(-3.46916e+07 -1.53227e+07 2.58544e-10 5.52354e+07 -1.49452e-09 -3.78548e+06)
(-3.42357e+07 -1.66005e+07 4.53748e-10 5.47795e+07 3.16421e-09 -3.78548e+06)
(-3.37435e+07 -1.78647e+07 -1.55101e-10 5.42873e+07 7.42379e-10 -3.78548e+06)
(-3.32154e+07 -1.91143e+07 3.16334e-10 5.37593e+07 -1.48334e-09 -3.78548e+06)
(-3.26518e+07 -2.03483e+07 9.90256e-10 5.31957e+07 2.22834e-10 -3.78548e+06)
(-3.20532e+07 -2.15658e+07 4.88267e-10 5.25971e+07 1.17222e-10 -3.78548e+06)
(-3.14201e+07 -2.27656e+07 -1.77857e-10 5.1964e+07 7.37258e-10 -3.78548e+06)
(-3.0753e+07 -2.39469e+07 -3.9353e-10 5.12969e+07 1.46474e-09 -3.78548e+06)
(-3.00525e+07 -2.51086e+07 2.37621e-09 5.05964e+07 -8.98119e-10 -3.78548e+06)
(-2.9319e+07 -2.62499e+07 1.27619e-11 4.98629e+07 3.84642e-12 -3.78548e+06)
(-2.85533e+07 -2.73697e+07 4.76719e-10 4.90972e+07 1.51141e-10 -3.78548e+06)
(-2.77559e+07 -2.84673e+07 1.69288e-09 4.82998e+07 -2.35798e-10 -3.78548e+06)
(-2.69275e+07 -2.95416e+07 2.27543e-10 4.74714e+07 8.82502e-10 -3.78548e+06)
(-2.60687e+07 -3.05918e+07 -4.77982e-10 4.66126e+07 -1.74401e-10 -3.78548e+06)
(-2.51803e+07 -3.16171e+07 -9.37912e-10 4.57242e+07 -3.57472e-10 -3.78548e+06)
(-2.4263e+07 -3.26166e+07 -2.72774e-10 4.48069e+07 7.07631e-10 -3.78548e+06)
(-2.33175e+07 -3.35894e+07 2.39462e-12 4.38614e+07 9.91887e-13 -3.78548e+06)
(-2.23446e+07 -3.45349e+07 1.66185e-09 4.28885e+07 -2.58684e-09 -3.78548e+06)
(-2.13451e+07 -3.54522e+07 7.7695e-10 4.1889e+07 -4.82853e-10 -3.78548e+06)
(-2.03199e+07 -3.63407e+07 -6.4593e-10 4.08638e+07 1.37228e-09 -3.78548e+06)
(-1.92697e+07 -3.71994e+07 -8.33562e-12 3.98135e+07 -4.02471e-12 -3.78548e+06)
(-1.81953e+07 -3.80278e+07 1.14381e-10 3.87392e+07 9.05299e-10 -3.78548e+06)
(-1.70978e+07 -3.88252e+07 -3.56163e-10 3.76417e+07 6.69548e-10 -3.78548e+06)
(-1.59779e+07 -3.9591e+07 -5.36779e-10 3.65218e+07 -1.14885e-09 -3.78548e+06)
(-1.48367e+07 -4.03244e+07 8.1186e-10 3.53806e+07 -4.16572e-10 -3.78548e+06)
(-1.36749e+07 -4.1025e+07 0 3.42188e+07 0 -3.78548e+06)
(-1.24937e+07 -4.16921e+07 8.7516e-10 3.30375e+07 5.19256e-10 -3.78548e+06)
(-1.12938e+07 -4.23252e+07 8.59763e-10 3.18377e+07 5.26864e-10 -3.78548e+06)
(-1.00764e+07 -4.29237e+07 7.97396e-10 3.06203e+07 -1.29025e-09 -3.78548e+06)
(-8.84235e+06 -4.34873e+07 8.55529e-10 2.93862e+07 5.58486e-10 -3.78548e+06)
(-7.59273e+06 -4.40154e+07 -8.5265e-10 2.81366e+07 1.25434e-09 -3.78548e+06)
(-6.32853e+06 -4.45076e+07 -8.59525e-10 2.68724e+07 1.24964e-09 -3.78548e+06)
(-5.0508e+06 -4.49635e+07 8.16675e-10 2.55947e+07 5.84486e-10 -3.78548e+06)
(-3.76057e+06 -4.53827e+07 -8.49914e-10 2.43045e+07 3.15456e-10 -3.78548e+06)
(-2.4589e+06 -4.57649e+07 -4.86408e-12 2.30028e+07 -3.69568e-12 -3.78548e+06)
(-1.14684e+06 -4.61098e+07 1.27458e-09 2.16907e+07 3.44916e-11 -3.78548e+06)
(174527 -4.64171e+07 -1.34944e-09 2.03694e+07 8.60417e-10 -3.78548e+06)
(1.50413e+06 -4.66865e+07 1.93374e-09 1.90398e+07 -2.33709e-09 -3.78548e+06)
(2.84089e+06 -4.69178e+07 1.12784e-10 1.7703e+07 -9.00959e-10 -3.78548e+06)
(4.18371e+06 -4.71109e+07 -1.12743e-09 1.63602e+07 2.038e-09 -3.78548e+06)
(5.53149e+06 -4.72655e+07 -1.28994e-10 1.50124e+07 9.05941e-10 -3.78548e+06)
(6.88314e+06 -4.73816e+07 -5.12412e-10 1.36607e+07 5.59063e-10 -3.78548e+06)
(8.23756e+06 -4.74591e+07 5.22215e-10 1.23063e+07 -5.49896e-10 -3.78548e+06)
(9.59363e+06 -4.74978e+07 1.78616e-09 1.09503e+07 -3.68934e-10 -3.78548e+06)
(1.09503e+07 -4.74978e+07 -2.31634e-09 9.59363e+06 8.90939e-10 -3.78548e+06)
(1.23063e+07 -4.74591e+07 -5.50921e-10 8.23756e+06 5.21146e-10 -3.78548e+06)
(1.36607e+07 -4.73816e+07 1.8094e-09 6.88314e+06 -2.82345e-10 -3.78548e+06)
(1.50124e+07 -4.72655e+07 2.17391e-10 5.53149e+06 -8.90056e-10 -3.78548e+06)
(1.63602e+07 -4.71109e+07 8.80031e-12 4.18371e+06 1.00107e-11 -3.78548e+06)
(1.7703e+07 -4.69178e+07 3.24792e-10 2.84089e+06 3.80282e-10 -3.78548e+06)
(1.90398e+07 -4.66865e+07 5.84095e-10 1.50413e+06 -4.8365e-10 -3.78548e+06)
(2.03694e+07 -4.64171e+07 -2.73308e-10 174527 8.69419e-10 -3.78548e+06)
(2.16907e+07 -4.61098e+07 5.9801e-10 -1.14684e+06 -4.66336e-10 -3.78548e+06)
(2.30028e+07 -4.57649e+07 1.80946e-09 -2.4589e+06 -1.379e-09 -3.78548e+06)
(2.43045e+07 -4.53827e+07 -6.15749e-10 -3.76057e+06 1.72039e-09 -3.78548e+06)
(2.55947e+07 -4.49635e+07 -1.85435e-09 -5.0508e+06 1.31803e-09 -3.78548e+06)
(2.68724e+07 -4.45076e+07 5.81528e-10 -6.32853e+06 8.37559e-10 -3.78548e+06)
(2.81366e+07 -4.40154e+07 -5.66923e-10 -7.59273e+06 -8.41939e-10 -3.78548e+06)
(2.93862e+07 -4.34873e+07 5.57373e-10 -8.84235e+06 8.53824e-10 -3.78548e+06)
(3.06203e+07 -4.29237e+07 2.70929e-10 -1.00764e+07 4.28267e-10 -3.78548e+06)
(3.18377e+07 -4.23252e+07 -5.258e-10 -1.12938e+07 -8.58027e-10 -3.78548e+06)
(3.30375e+07 -4.16921e+07 1.37275e-10 -1.24937e+07 -1.25479e-09 -3.78548e+06)
(3.42188e+07 -4.1025e+07 1.8207e-09 -1.36749e+07 1.25023e-10 -3.78548e+06)
(3.53806e+07 -4.03244e+07 2.4478e-10 -1.48367e+07 4.40769e-10 -3.78548e+06)
(3.65218e+07 -3.9591e+07 -2.42839e-10 -1.59779e+07 -4.52375e-10 -3.78548e+06)
(3.76417e+07 -3.88252e+07 2.32093e-10 -1.70978e+07 4.47579e-10 -3.78548e+06)
(3.87392e+07 -3.80278e+07 -4.555e-10 -1.81953e+07 -9.09973e-10 -3.78548e+06)
(3.98135e+07 -3.71994e+07 9.24481e-10 -1.92697e+07 -1.57351e-09 -3.78548e+06)
(4.08638e+07 -3.63407e+07 1.71818e-12 -2.03199e+07 3.69234e-12 -3.78548e+06)
(4.1889e+07 -3.54522e+07 -2.0775e-09 -2.13451e+07 9.2724e-10 -3.78548e+06)
(4.28885e+07 -3.45349e+07 -1.39097e-09 -2.23446e+07 6.0461e-10 -3.78548e+06)
(4.38614e+07 -3.35894e+07 2.09902e-09 -2.33175e+07 -8.77456e-10 -3.78548e+06)
(4.48069e+07 -3.26166e+07 1.59962e-09 -2.4263e+07 -8.18582e-11 -3.78548e+06)
(4.57242e+07 -3.16171e+07 -2.12704e-09 -2.51803e+07 8.07126e-10 -3.78548e+06)
(4.66126e+07 -3.05918e+07 -1.06076e-09 -2.60687e+07 -6.94814e-10 -3.78548e+06)
(4.74714e+07 -2.95416e+07 -3.33591e-10 -2.69275e+07 -9.56478e-10 -3.78548e+06)
(4.82998e+07 -2.84673e+07 2.31613e-09 -2.77559e+07 -2.4517e-10 -3.78548e+06)
(4.90972e+07 -2.73697e+07 -3.01499e-10 -2.85533e+07 -9.50967e-10 -3.78548e+06)
(4.98629e+07 -2.62499e+07 -2.0343e-09 -2.9319e+07 1.13411e-09 -3.78548e+06)
(5.05964e+07 -2.51086e+07 2.3245e-09 -3.00525e+07 -1.45753e-10 -3.78548e+06)
(5.12969e+07 -2.39469e+07 2.80363e-12 -3.0753e+07 1.03645e-11 -3.78548e+06)
(5.1964e+07 -2.27656e+07 -1.72339e-09 -3.14201e+07 -6.19345e-10 -3.78548e+06)
(5.25971e+07 -2.15658e+07 1.5558e-12 -3.20532e+07 6.48032e-12 -3.78548e+06)
(5.31957e+07 -2.03483e+07 2.20924e-10 -3.26518e+07 9.81768e-10 -3.78548e+06)
(5.37593e+07 -1.91143e+07 5.35528e-10 -3.32154e+07 -1.13946e-09 -3.78548e+06)
(5.42873e+07 -1.78647e+07 -8.42024e-10 -3.37435e+07 -3.55363e-10 -3.78548e+06)
(5.47795e+07 -1.66005e+07 1.58056e-09 -3.42357e+07 2.18312e-10 -3.78548e+06)
(5.52354e+07 -1.53227e+07 8.31775e-10 -3.46916e+07 3.80723e-10 -3.78548e+06)
(5.56547e+07 -1.40325e+07 -1.42535e-09 -3.51108e+07 7.18491e-10 -3.78548e+06)
(5.60369e+07 -1.27308e+07 -1.36374e-10 -3.5493e+07 -9.9909e-10 -3.78548e+06)
(5.63817e+07 -1.14188e+07 -1.38263e-09 -3.58379e+07 1.19119e-09 -3.78548e+06)
(5.6689e+07 -1.00974e+07 -1.45382e-09 -3.61451e+07 6.65992e-10 -3.78548e+06)
(5.69584e+07 -8.76781e+06 8.02357e-10 -3.64145e+07 4.37617e-10 -3.78548e+06)
(5.71898e+07 -7.43105e+06 1.43253e-09 -3.66459e+07 -1.12886e-09 -3.78548e+06)
(5.73828e+07 -6.08823e+06 7.56991e-10 -3.68389e+07 -4.53721e-11 -3.78548e+06)
(5.75375e+07 -4.74045e+06 -5.08389e-11 -3.69936e+07 -1.01634e-09 -3.78548e+06)
(5.76536e+07 -3.3888e+06 0 -3.71097e+07 0 -3.78548e+06)
(5.7731e+07 -2.03439e+06 0 -3.71871e+07 0 -3.78548e+06)
(5.77698e+07 -678313 0 -3.72259e+07 0 -3.78548e+06)
(-3.62977e+07 -663285 -5.07054e-10 5.65933e+07 -3.62042e-12 -3.67392e+06)
(-3.62598e+07 -1.98931e+06 -2.50199e-11 5.65554e+07 1.46699e-09 -3.67392e+06)
(-3.61841e+07 -3.31372e+06 4.47975e-10 5.64796e+07 1.48412e-09 -3.67392e+06)
(-3.60706e+07 -4.63542e+06 1.4281e-10 5.63661e+07 -2.9309e-09 -3.67392e+06)
(-3.59193e+07 -5.95335e+06 1.09843e-09 5.62149e+07 -1.39954e-09 -3.67392e+06)
(-3.57305e+07 -7.26641e+06 -1.23224e-09 5.60261e+07 2.84646e-09 -3.67392e+06)
(-3.55043e+07 -8.57355e+06 -3.77641e-12 5.57999e+07 -3.51537e-13 -3.67392e+06)
(-3.52409e+07 -9.8737e+06 1.16256e-09 5.55365e+07 -1.35065e-09 -3.67392e+06)
(-3.49404e+07 -1.11658e+07 1.62337e-10 5.5236e+07 -1.45826e-09 -3.67392e+06)
(-3.46032e+07 -1.24488e+07 4.9723e-10 5.48988e+07 6.78709e-11 -3.67392e+06)
(-3.42295e+07 -1.37216e+07 1.75326e-09 5.4525e+07 1.7487e-09 -3.67392e+06)
(-3.38195e+07 -1.49833e+07 -9.82694e-10 5.41151e+07 -1.62844e-10 -3.67392e+06)
(-3.33737e+07 -1.62327e+07 -2.54199e-10 5.36693e+07 1.44501e-09 -3.67392e+06)
(-3.28924e+07 -1.74689e+07 -1.25751e-11 5.3188e+07 -2.45469e-12 -3.67392e+06)
(-3.2376e+07 -1.86908e+07 -1.88338e-10 5.26716e+07 -1.53877e-09 -3.67392e+06)
(-3.1825e+07 -1.98975e+07 0 5.21205e+07 0 -3.67392e+06)
(-3.12397e+07 -2.1088e+07 -4.93057e-10 5.15352e+07 -1.18372e-10 -3.67392e+06)
(-3.06206e+07 -2.22612e+07 0 5.09162e+07 0 -3.67392e+06)
(-2.99683e+07 -2.34163e+07 1.71538e-09 5.02638e+07 -2.57582e-09 -3.67392e+06)
(-2.92832e+07 -2.45523e+07 9.65019e-10 4.95788e+07 2.75886e-10 -3.67392e+06)
(-2.8566e+07 -2.56683e+07 -1.82141e-09 4.88616e+07 2.51578e-09 -3.67392e+06)
(-2.78173e+07 -2.67634e+07 4.28706e-10 4.81128e+07 -1.40324e-09 -3.67392e+06)
(-2.70375e+07 -2.78366e+07 -9.5008e-10 4.73331e+07 -3.16217e-10 -3.67392e+06)
(-2.62275e+07 -2.88871e+07 -1.44512e-09 4.6523e+07 2.60371e-09 -3.67392e+06)
(-2.53877e+07 -2.9914e+07 4.64313e-10 4.56833e+07 1.69414e-10 -3.67392e+06)
(-2.4519e+07 -3.09166e+07 9.93908e-10 4.48146e+07 -1.19132e-09 -3.67392e+06)
(-2.3622e+07 -3.18939e+07 4.62811e-10 4.39176e+07 1.84005e-10 -3.67392e+06)
(-2.26975e+07 -3.28453e+07 9.20272e-10 4.2993e+07 3.81189e-10 -3.67392e+06)
(-2.17461e+07 -3.37698e+07 -4.6565e-10 4.20417e+07 -2.00716e-10 -3.67392e+06)
(-2.07688e+07 -3.46668e+07 8.23113e-12 4.10644e+07 3.68823e-12 -3.67392e+06)
(-1.97663e+07 -3.55355e+07 -6.13196e-10 4.00618e+07 1.33292e-09 -3.67392e+06)
(-1.87393e+07 -3.63752e+07 -3.41546e-12 3.90349e+07 -1.64909e-12 -3.67392e+06)
(-1.76888e+07 -3.71853e+07 1.14572e-11 3.79844e+07 5.73504e-12 -3.67392e+06)
(-1.66156e+07 -3.7965e+07 -1.12323e-09 3.69111e+07 1.07026e-09 -3.67392e+06)
(-1.55205e+07 -3.87138e+07 1.13506e-09 3.58161e+07 -1.05591e-09 -3.67392e+06)
(-1.44045e+07 -3.9431e+07 7.17924e-10 3.47001e+07 -1.27955e-09 -3.67392e+06)
(-1.32685e+07 -4.01161e+07 7.25011e-10 3.35641e+07 -1.27555e-09 -3.67392e+06)
(-1.21134e+07 -4.07684e+07 3.26181e-12 3.2409e+07 1.93531e-12 -3.67392e+06)
(-1.09402e+07 -4.13874e+07 -2.39021e-09 3.12357e+07 1.97679e-09 -3.67392e+06)
(-9.74971e+06 -4.19727e+07 7.75768e-10 3.00453e+07 -1.24536e-09 -3.67392e+06)
(-8.54302e+06 -4.25238e+07 -2.35491e-11 2.88386e+07 -1.7675e-09 -3.67392e+06)
(-7.32108e+06 -4.30402e+07 -8.24788e-10 2.76166e+07 1.21342e-09 -3.67392e+06)
(-6.0849e+06 -4.35215e+07 0 2.63805e+07 0 -3.67392e+06)
(-4.83548e+06 -4.39673e+07 -3.86658e-11 2.5131e+07 1.77655e-09 -3.67392e+06)
(-3.57384e+06 -4.43772e+07 -3.05239e-12 2.38694e+07 -2.25116e-12 -3.67392e+06)
(-2.301e+06 -4.4751e+07 2.88273e-09 2.25966e+07 3.47637e-10 -3.67392e+06)
(-1.01802e+06 -4.50882e+07 -8.99161e-10 2.13136e+07 1.15939e-09 -3.67392e+06)
(274079 -4.53887e+07 7.72648e-10 2.00215e+07 6.22639e-10 -3.67392e+06)
(1.57423e+06 -4.56521e+07 7.76458e-10 1.87213e+07 6.44211e-10 -3.67392e+06)
(2.88137e+06 -4.58783e+07 -7.60321e-10 1.74142e+07 -6.49375e-10 -3.67392e+06)