/*--------------------------------*- C++ -*----------------------------------*\
| =========                 |                                                 |
| \\      /  F ield         | OpenFOAM: The Open Source CFD Toolbox           |
|  \\    /   O peration     | Version:  2312                                  |
|   \\  /    A nd           | Website:  www.openfoam.com                      |
|    \\/     M anipulation  |                                                 |
\*---------------------------------------------------------------------------*/
FoamFile
{
    version     2.0;
    format      ascii;
    arch        "LSB;label=32;scalar=64";
    class       pointVectorField;
    location    "100";
    object      pointD;
}
// * * * * * * * * * * * * * * * * * * * * * * * * * * * * * * * * * * * * * //

dimensions      [0 1 0 0 0 0 0];

internalField   nonuniform List<vector> 
26196
(
(6.55913 0 0)
(5.41599 0 0)
(0 6.55913 0)
(0 5.41599 0)
(6.55913 0 0)
(5.41599 0 0)
(0 5.41599 0)
(0 6.55913 0)
(6.53328 0 0)
(6.5078 0 0)
(6.4828 0 0)
(6.45814 0 0)
(6.4339 0 0)
(6.41002 0 0)
(6.38653 0 0)
(6.36341 0 0)
(6.34067 0 0)
(6.3183 0 0)
(6.29629 0 0)
(6.27465 0 0)
(6.25336 0 0)
(6.23244 0 0)
(6.21186 0 0)
(6.19163 0 0)
(6.17175 0 0)
(6.15221 0 0)
(6.13301 0 0)
(6.11414 0 0)
(6.0956 0 0)
(6.0774 0 0)
(6.05951 0 0)
(6.04195 0 0)
(6.02471 0 0)
(6.00778 0 0)
(5.99116 0 0)
(5.97485 0 0)
(5.95885 0 0)
(5.94314 0 0)
(5.92774 0 0)
(5.91262 0 0)
(5.8978 0 0)
(5.88327 0 0)
(5.86902 0 0)
(5.85505 0 0)
(5.84137 0 0)
(5.82795 0 0)
(5.81481 0 0)
(5.80194 0 0)
(5.78933 0 0)
(5.77699 0 0)
(5.76491 0 0)
(5.75308 0 0)
(5.74151 0 0)
(5.73019 0 0)
(5.71911 0 0)
(5.70829 0 0)
(5.6977 0 0)
(5.68735 0 0)
(5.67724 0 0)
(5.66737 0 0)
(5.65772 0 0)
(5.6483 0 0)
(5.63911 0 0)
(5.63015 0 0)
(5.6214 0 0)
(5.61287 0 0)
(5.60455 0 0)
(5.59645 0 0)
(5.58856 0 0)
(5.58087 0 0)
(5.57339 0 0)
(5.56611 0 0)
(5.55904 0 0)
(5.55216 0 0)
(5.54548 0 0)
(5.53898 0 0)
(5.53269 0 0)
(5.52657 0 0)
(5.52065 0 0)
(5.51491 0 0)
(5.50935 0 0)
(5.50397 0 0)
(5.49877 0 0)
(5.49374 0 0)
(5.48889 0 0)
(5.48421 0 0)
(5.4797 0 0)
(5.47535 0 0)
(5.47117 0 0)
(5.46716 0 0)
(5.4633 0 0)
(5.45961 0 0)
(5.45607 0 0)
(5.45269 0 0)
(5.44946 0 0)
(5.44639 0 0)
(5.44346 0 0)
(5.44068 0 0)
(5.43805 0 0)
(5.43557 0 0)
(5.43323 0 0)
(5.43103 0 0)
(5.42897 0 0)
(5.42705 0 0)
(5.42526 0 0)
(5.42361 0 0)
(5.4221 0 0)
(5.42071 0 0)
(5.41946 0 0)
(5.41833 0 0)
(5.41734 0 0)
(5.41647 0 0)
(5.41572 0 0)
(5.4151 0 0)
(5.4146 0 0)
(5.41421 0 0)
(5.41395 0 0)
(5.41381 0 0)
(5.41378 0 0)
(5.41387 0 0)
(5.41406 0 0)
(5.41438 0 0)
(5.4148 0 0)
(5.41535 0 0)
(5.41544 0.0773376 0)
(5.41379 0.154659 0)
(5.41103 0.23195 0)
(5.40716 0.309193 0)
(5.40219 0.386373 0)
(5.39613 0.463474 0)
(5.38896 0.54048 0)
(5.38069 0.617377 0)
(5.37133 0.694147 0)
(5.36087 0.770776 0)
(5.34931 0.847248 0)
(5.33667 0.923547 0)
(5.32294 0.999658 0)
(5.30812 1.07556 0)
(5.29222 1.15125 0)
(5.27524 1.22671 0)
(5.25719 1.30191 0)
(5.23806 1.37685 0)
(5.21787 1.4515 0)
(5.19661 1.52586 0)
(5.17429 1.59991 0)
(5.15092 1.67363 0)
(5.12649 1.74702 0)
(5.10102 1.82004 0)
(5.07451 1.8927 0)
(5.04697 1.96496 0)
(5.0184 2.03683 0)
(4.9888 2.10828 0)
(4.95819 2.17931 0)
(4.92656 2.24989 0)
(4.89393 2.32 0)
(4.8603 2.38965 0)
(4.82569 2.45881 0)
(4.79008 2.52747 0)
(4.7535 2.59561 0)
(4.71596 2.66322 0)
(4.67745 2.73029 0)
(4.63798 2.79681 0)
(4.59757 2.86275 0)
(4.55622 2.92811 0)
(4.51395 2.99287 0)
(4.47075 3.05702 0)
(4.42664 3.12055 0)
(4.38163 3.18344 0)
(4.33573 3.24568 0)
(4.28894 3.30727 0)
(4.24127 3.36817 0)
(4.19275 3.42839 0)
(4.14336 3.48791 0)
(4.09314 3.54672 0)
(4.04207 3.60481 0)
(3.99019 3.66216 0)
(3.93749 3.71876 0)
(3.88398 3.77461 0)
(3.82969 3.82969 0)
(3.77461 3.88398 0)
(3.71876 3.93749 0)
(3.66216 3.99019 0)
(3.60481 4.04207 0)
(3.54672 4.09314 0)
(3.48791 4.14336 0)
(3.42839 4.19275 0)
(3.36817 4.24127 0)
(3.30727 4.28894 0)
(3.24568 4.33573 0)
(3.18344 4.38163 0)
(3.12055 4.42664 0)
(3.05702 4.47075 0)
(2.99287 4.51395 0)
(2.92811 4.55622 0)
(2.86275 4.59757 0)
(2.79681 4.63798 0)
(2.73029 4.67745 0)
(2.66322 4.71596 0)
(2.59561 4.7535 0)
(2.52747 4.79008 0)
(2.45881 4.82569 0)
(2.38965 4.8603 0)
(2.32 4.89393 0)
(2.24989 4.92656 0)
(2.17931 4.95819 0)
(2.10828 4.9888 0)
(2.03683 5.0184 0)
(1.96496 5.04697 0)
(1.8927 5.07451 0)
(1.82004 5.10102 0)
(1.74702 5.12649 0)
(1.67363 5.15092 0)
(1.59991 5.17429 0)
(1.52586 5.19661 0)
(1.4515 5.21787 0)
(1.37685 5.23806 0)
(1.30191 5.25719 0)
(1.22671 5.27524 0)
(1.15125 5.29222 0)
(1.07556 5.30812 0)
(0.999658 5.32294 0)
(0.923547 5.33667 0)
(0.847248 5.34931 0)
(0.770776 5.36087 0)
(0.694147 5.37133 0)
(0.617377 5.38069 0)
(0.54048 5.38896 0)
(0.463474 5.39613 0)
(0.386373 5.40219 0)
(0.309193 5.40716 0)
(0.23195 5.41103 0)
(0.154659 5.41379 0)
(0.0773376 5.41544 0)
(0 5.41535 0)
(0 5.4148 0)
(0 5.41438 0)
(0 5.41406 0)
(0 5.41387 0)
(0 5.41378 0)
(0 5.41381 0)
(0 5.41395 0)
(0 5.41421 0)
(0 5.4146 0)
(0 5.4151 0)
(0 5.41572 0)
(0 5.41647 0)
(0 5.41734 0)
(0 5.41833 0)
(0 5.41946 0)
(0 5.42071 0)
(0 5.4221 0)
(0 5.42361 0)
(0 5.42526 0)
(0 5.42705 0)
(0 5.42897 0)
(0 5.43103 0)
(0 5.43323 0)
(0 5.43557 0)
(0 5.43805 0)
(0 5.44068 0)
(0 5.44346 0)
(0 5.44639 0)
(0 5.44946 0)
(0 5.45269 0)
(0 5.45607 0)
(0 5.45961 0)
(0 5.4633 0)
(0 5.46716 0)
(0 5.47117 0)
(0 5.47535 0)
(0 5.4797 0)
(0 5.48421 0)
(0 5.48889 0)
(0 5.49374 0)
(0 5.49877 0)
(0 5.50397 0)
(0 5.50935 0)
(0 5.51491 0)
(0 5.52065 0)
(0 5.52657 0)
(0 5.53269 0)
(0 5.53898 0)
(0 5.54548 0)
(0 5.55216 0)
(0 5.55904 0)
(0 5.56611 0)
(0 5.57339 0)
(0 5.58087 0)
(0 5.58856 0)
(0 5.59645 0)
(0 5.60455 0)
(0 5.61287 0)
(0 5.6214 0)
(0 5.63015 0)
(0 5.63911 0)
(0 5.6483 0)
(0 5.65772 0)
(0 5.66737 0)
(0 5.67724 0)
(0 5.68735 0)
(0 5.6977 0)
(0 5.70829 0)
(0 5.71911 0)
(0 5.73019 0)
(0 5.74151 0)
(0 5.75308 0)
(0 5.76491 0)
(0 5.77699 0)
(0 5.78933 0)
(0 5.80194 0)
(0 5.81481 0)
(0 5.82795 0)
(0 5.84137 0)
(0 5.85505 0)
(0 5.86902 0)
(0 5.88327 0)
(0 5.8978 0)
(0 5.91262 0)
(0 5.92774 0)
(0 5.94314 0)
(0 5.95885 0)
(0 5.97485 0)
(0 5.99116 0)
(0 6.00778 0)
(0 6.02471 0)
(0 6.04195 0)
(0 6.05951 0)
(0 6.0774 0)
(0 6.0956 0)
(0 6.11414 0)
(0 6.13301 0)
(0 6.15221 0)
(0 6.17175 0)
(0 6.19163 0)
(0 6.21186 0)
(0 6.23244 0)
(0 6.25336 0)
(0 6.27465 0)
(0 6.29629 0)
(0 6.3183 0)
(0 6.34067 0)
(0 6.36341 0)
(0 6.38653 0)
(0 6.41002 0)
(0 6.4339 0)
(0 6.45814 0)
(0 6.4828 0)
(0 6.5078 0)
(0 6.53328 0)
(0.093661 6.55846 0)
(0.187303 6.55646 0)
(0.280907 6.55311 0)
(0.374453 6.54843 0)
(0.467923 6.54242 0)
(0.561298 6.53507 0)
(0.654558 6.52639 0)
(0.747685 6.51638 0)
(0.840659 6.50504 0)
(0.933462 6.49237 0)
(1.02607 6.47838 0)
(1.11848 6.46307 0)
(1.21065 6.44644 0)
(1.30258 6.42849 0)
(1.39424 6.40924 0)
(1.48562 6.38867 0)
(1.5767 6.36681 0)
(1.66745 6.34364 0)
(1.75787 6.31919 0)
(1.84792 6.29344 0)
(1.9376 6.26641 0)
(2.02688 6.23811 0)
(2.11575 6.20853 0)
(2.20419 6.17768 0)
(2.29218 6.14558 0)
(2.3797 6.11222 0)
(2.46674 6.07761 0)
(2.55327 6.04177 0)
(2.63929 6.0047 0)
(2.72476 5.9664 0)
(2.80968 5.92688 0)
(2.89403 5.88615 0)
(2.97778 5.84423 0)
(3.06093 5.80111 0)
(3.14346 5.75681 0)
(3.22534 5.71134 0)
(3.30657 5.6647 0)
(3.38712 5.61691 0)
(3.46698 5.56797 0)
(3.54613 5.51789 0)
(3.62457 5.46669 0)
(3.70226 5.41438 0)
(3.77919 5.36096 0)
(3.85536 5.30645 0)
(3.93074 5.25086 0)
(4.00532 5.19419 0)
(4.07908 5.13647 0)
(4.15201 5.0777 0)
(4.2241 5.01789 0)
(4.29532 4.95706 0)
(4.36566 4.89522 0)
(4.43512 4.83238 0)
(4.50367 4.76856 0)
(4.57131 4.70376 0)
(4.63801 4.63801 0)
(4.70376 4.57131 0)
(4.76856 4.50367 0)
(4.83238 4.43512 0)
(4.89522 4.36566 0)
(4.95706 4.29532 0)
(5.01789 4.2241 0)
(5.0777 4.15201 0)
(5.13647 4.07908 0)
(5.19419 4.00532 0)
(5.25086 3.93074 0)
(5.30645 3.85536 0)
(5.36096 3.77919 0)
(5.41438 3.70226 0)
(5.46669 3.62457 0)
(5.51789 3.54613 0)
(5.56797 3.46698 0)
(5.61691 3.38712 0)
(5.6647 3.30657 0)
(5.71134 3.22534 0)
(5.75681 3.14346 0)
(5.80111 3.06093 0)
(5.84423 2.97778 0)
(5.88615 2.89403 0)
(5.92688 2.80968 0)
(5.9664 2.72476 0)
(6.0047 2.63929 0)
(6.04177 2.55327 0)
(6.07761 2.46674 0)
(6.11222 2.3797 0)
(6.14558 2.29218 0)
(6.17768 2.20419 0)
(6.20853 2.11575 0)
(6.23811 2.02688 0)
(6.26641 1.9376 0)
(6.29344 1.84792 0)
(6.31919 1.75787 0)
(6.34364 1.66745 0)
(6.36681 1.5767 0)
(6.38867 1.48562 0)
(6.40924 1.39424 0)
(6.42849 1.30258 0)
(6.44644 1.21065 0)
(6.46307 1.11848 0)
(6.47838 1.02607 0)
(6.49237 0.933462 0)
(6.50504 0.840659 0)
(6.51638 0.747685 0)
(6.52639 0.654558 0)
(6.53507 0.561298 0)
(6.54242 0.467923 0)
(6.54843 0.374453 0)
(6.55311 0.280907 0)
(6.55646 0.187303 0)
(6.55846 0.093661 0)
(6.53328 0 0)
(6.5078 0 0)
(6.4828 0 0)
(6.45814 0 0)
(6.4339 0 0)
(6.41002 0 0)
(6.38653 0 0)
(6.36341 0 0)
(6.34067 0 0)
(6.3183 0 0)
(6.29629 0 0)
(6.27465 0 0)
(6.25336 0 0)
(6.23244 0 0)
(6.21186 0 0)
(6.19163 0 0)
(6.17175 0 0)
(6.15221 0 0)
(6.13301 0 0)
(6.11414 0 0)
(6.0956 0 0)
(6.0774 0 0)
(6.05951 0 0)
(6.04195 0 0)
(6.02471 0 0)
(6.00778 0 0)
(5.99116 0 0)
(5.97485 0 0)
(5.95885 0 0)
(5.94314 0 0)
(5.92774 0 0)
(5.91262 0 0)
(5.8978 0 0)
(5.88327 0 0)
(5.86902 0 0)
(5.85505 0 0)
(5.84137 0 0)
(5.82795 0 0)
(5.81481 0 0)
(5.80194 0 0)
(5.78933 0 0)
(5.77699 0 0)
(5.76491 0 0)
(5.75308 0 0)
(5.74151 0 0)
(5.73019 0 0)
(5.71911 0 0)
(5.70829 0 0)
(5.6977 0 0)
(5.68735 0 0)
(5.67724 0 0)
(5.66737 0 0)
(5.65772 0 0)
(5.6483 0 0)
(5.63911 0 0)
(5.63015 0 0)
(5.6214 0 0)
(5.61287 0 0)
(5.60455 0 0)
(5.59645 0 0)
(5.58856 0 0)
(5.58087 0 0)
(5.57339 0 0)
(5.56611 0 0)
(5.55904 0 0)
(5.55216 0 0)
(5.54548 0 0)
(5.53898 0 0)
(5.53269 0 0)
(5.52657 0 0)
(5.52065 0 0)
(5.51491 0 0)
(5.50935 0 0)
(5.50397 0 0)
(5.49877 0 0)
(5.49374 0 0)
(5.48889 0 0)
(5.48421 0 0)
(5.4797 0 0)
(5.47535 0 0)
(5.47117 0 0)
(5.46716 0 0)
(5.4633 0 0)
(5.45961 0 0)
(5.45607 0 0)
(5.45269 0 0)
(5.44946 0 0)
(5.44639 0 0)
(5.44346 0 0)
(5.44068 0 0)
(5.43805 0 0)
(5.43557 0 0)
(5.43323 0 0)
(5.43103 0 0)
(5.42897 0 0)
(5.42705 0 0)
(5.42526 0 0)
(5.42361 0 0)
(5.4221 0 0)
(5.42071 0 0)
(5.41946 0 0)
(5.41833 0 0)
(5.41734 0 0)
(5.41647 0 0)
(5.41572 0 0)
(5.4151 0 0)
(5.4146 0 0)
(5.41421 0 0)
(5.41395 0 0)
(5.41381 0 0)
(5.41378 0 0)
(5.41387 0 0)
(5.41406 0 0)
(5.41438 0 0)
(5.4148 0 0)
(5.41535 0 0)
(5.41544 0.0773376 0)
(5.41379 0.154659 0)
(5.41103 0.23195 0)
(5.40716 0.309193 0)
(5.40219 0.386373 0)
(5.39613 0.463474 0)
(5.38896 0.54048 0)
(5.38069 0.617377 0)
(5.37133 0.694147 0)
(5.36087 0.770776 0)
(5.34931 0.847248 0)
(5.33667 0.923547 0)
(5.32294 0.999658 0)
(5.30812 1.07556 0)
(5.29222 1.15125 0)
(5.27524 1.22671 0)
(5.25719 1.30191 0)
(5.23806 1.37685 0)
(5.21787 1.4515 0)
(5.19661 1.52586 0)
(5.17429 1.59991 0)
(5.15092 1.67363 0)
(5.12649 1.74702 0)
(5.10102 1.82004 0)
(5.07451 1.8927 0)
(5.04697 1.96496 0)
(5.0184 2.03683 0)
(4.9888 2.10828 0)
(4.95819 2.17931 0)
(4.92656 2.24989 0)
(4.89393 2.32 0)
(4.8603 2.38965 0)
(4.82569 2.45881 0)
(4.79008 2.52747 0)
(4.7535 2.59561 0)
(4.71596 2.66322 0)
(4.67745 2.73029 0)
(4.63798 2.79681 0)
(4.59757 2.86275 0)
(4.55622 2.92811 0)
(4.51395 2.99287 0)
(4.47075 3.05702 0)
(4.42664 3.12055 0)
(4.38163 3.18344 0)
(4.33573 3.24568 0)
(4.28894 3.30727 0)
(4.24127 3.36817 0)
(4.19275 3.42839 0)
(4.14336 3.48791 0)
(4.09314 3.54672 0)
(4.04207 3.60481 0)
(3.99019 3.66216 0)
(3.93749 3.71876 0)
(3.88398 3.77461 0)
(3.82969 3.82969 0)
(3.77461 3.88398 0)
(3.71876 3.93749 0)
(3.66216 3.99019 0)
(3.60481 4.04207 0)
(3.54672 4.09314 0)
(3.48791 4.14336 0)
(3.42839 4.19275 0)
(3.36817 4.24127 0)
(3.30727 4.28894 0)
(3.24568 4.33573 0)
(3.18344 4.38163 0)
(3.12055 4.42664 0)
(3.05702 4.47075 0)
(2.99287 4.51395 0)
(2.92811 4.55622 0)
(2.86275 4.59757 0)
(2.79681 4.63798 0)
(2.73029 4.67745 0)
(2.66322 4.71596 0)
(2.59561 4.7535 0)
(2.52747 4.79008 0)
(2.45881 4.82569 0)
(2.38965 4.8603 0)
(2.32 4.89393 0)
(2.24989 4.92656 0)
(2.17931 4.95819 0)
(2.10828 4.9888 0)
(2.03683 5.0184 0)
(1.96496 5.04697 0)
(1.8927 5.07451 0)
(1.82004 5.10102 0)
(1.74702 5.12649 0)
(1.67363 5.15092 0)
(1.59991 5.17429 0)
(1.52586 5.19661 0)
(1.4515 5.21787 0)
(1.37685 5.23806 0)
(1.30191 5.25719 0)
(1.22671 5.27524 0)
(1.15125 5.29222 0)
(1.07556 5.30812 0)
(0.999658 5.32294 0)
(0.923547 5.33667 0)
(0.847248 5.34931 0)
(0.770776 5.36087 0)
(0.694147 5.37133 0)
(0.617377 5.38069 0)
(0.54048 5.38896 0)
(0.463474 5.39613 0)
(0.386373 5.40219 0)
(0.309193 5.40716 0)
(0.23195 5.41103 0)
(0.154659 5.41379 0)
(0.0773376 5.41544 0)
(0 5.41535 0)
(0 5.4148 0)
(0 5.41438 0)
(0 5.41406 0)
(0 5.41387 0)
(0 5.41378 0)
(0 5.41381 0)
(0 5.41395 0)
(0 5.41421 0)
(0 5.4146 0)
(0 5.4151 0)
(0 5.41572 0)
(0 5.41647 0)
(0 5.41734 0)
(0 5.41833 0)
(0 5.41946 0)
(0 5.42071 0)
(0 5.4221 0)
(0 5.42361 0)
(0 5.42526 0)
(0 5.42705 0)
(0 5.42897 0)
(0 5.43103 0)
(0 5.43323 0)
(0 5.43557 0)
(0 5.43805 0)
(0 5.44068 0)
(0 5.44346 0)
(0 5.44639 0)
(0 5.44946 0)
(0 5.45269 0)
(0 5.45607 0)
(0 5.45961 0)
(0 5.4633 0)
(0 5.46716 0)
(0 5.47117 0)
(0 5.47535 0)
(0 5.4797 0)
(0 5.48421 0)
(0 5.48889 0)
(0 5.49374 0)
(0 5.49877 0)
(0 5.50397 0)
(0 5.50935 0)
(0 5.51491 0)
(0 5.52065 0)
(0 5.52657 0)
(0 5.53269 0)
(0 5.53898 0)
(0 5.54548 0)
(0 5.55216 0)
(0 5.55904 0)
(0 5.56611 0)
(0 5.57339 0)
(0 5.58087 0)
(0 5.58856 0)
(0 5.59645 0)
(0 5.60455 0)
(0 5.61287 0)
(0 5.6214 0)
(0 5.63015 0)
(0 5.63911 0)
(0 5.6483 0)
(0 5.65772 0)
(0 5.66737 0)
(0 5.67724 0)
(0 5.68735 0)
(0 5.6977 0)
(0 5.70829 0)
(0 5.71911 0)
(0 5.73019 0)
(0 5.74151 0)
(0 5.75308 0)
(0 5.76491 0)
(0 5.77699 0)
(0 5.78933 0)
(0 5.80194 0)
(0 5.81481 0)
(0 5.82795 0)
(0 5.84137 0)
(0 5.85505 0)
(0 5.86902 0)
(0 5.88327 0)
(0 5.8978 0)
(0 5.91262 0)
(0 5.92774 0)
(0 5.94314 0)
(0 5.95885 0)
(0 5.97485 0)
(0 5.99116 0)
(0 6.00778 0)
(0 6.02471 0)
(0 6.04195 0)
(0 6.05951 0)
(0 6.0774 0)
(0 6.0956 0)
(0 6.11414 0)
(0 6.13301 0)
(0 6.15221 0)
(0 6.17175 0)
(0 6.19163 0)
(0 6.21186 0)
(0 6.23244 0)
(0 6.25336 0)
(0 6.27465 0)
(0 6.29629 0)
(0 6.3183 0)
(0 6.34067 0)
(0 6.36341 0)
(0 6.38653 0)
(0 6.41002 0)
(0 6.4339 0)
(0 6.45814 0)
(0 6.4828 0)
(0 6.5078 0)
(0 6.53328 0)
(0.093661 6.55846 0)
(0.187303 6.55646 0)
(0.280907 6.55311 0)
(0.374453 6.54843 0)
(0.467923 6.54242 0)
(0.561298 6.53507 0)
(0.654558 6.52639 0)
(0.747685 6.51638 0)
(0.840659 6.50504 0)
(0.933462 6.49237 0)
(1.02607 6.47838 0)
(1.11848 6.46307 0)
(1.21065 6.44644 0)
(1.30258 6.42849 0)
(1.39424 6.40924 0)
(1.48562 6.38867 0)
(1.5767 6.36681 0)
(1.66745 6.34364 0)
(1.75787 6.31919 0)
(1.84792 6.29344 0)
(1.9376 6.26641 0)
(2.02688 6.23811 0)
(2.11575 6.20853 0)
(2.20419 6.17768 0)
(2.29218 6.14558 0)
(2.3797 6.11222 0)
(2.46674 6.07761 0)
(2.55327 6.04177 0)
(2.63929 6.0047 0)
(2.72476 5.9664 0)
(2.80968 5.92688 0)
(2.89403 5.88615 0)
(2.97778 5.84423 0)
(3.06093 5.80111 0)
(3.14346 5.75681 0)
(3.22534 5.71134 0)
(3.30657 5.6647 0)
(3.38712 5.61691 0)
(3.46698 5.56797 0)
(3.54613 5.51789 0)
(3.62457 5.46669 0)
(3.70226 5.41438 0)
(3.77919 5.36096 0)
(3.85536 5.30645 0)
(3.93074 5.25086 0)
(4.00532 5.19419 0)
(4.07908 5.13647 0)
(4.15201 5.0777 0)
(4.2241 5.01789 0)
(4.29532 4.95706 0)
(4.36566 4.89522 0)
(4.43512 4.83238 0)
(4.50367 4.76856 0)
(4.57131 4.70376 0)
(4.63801 4.63801 0)
(4.70376 4.57131 0)
(4.76856 4.50367 0)
(4.83238 4.43512 0)
(4.89522 4.36566 0)
(4.95706 4.29532 0)
(5.01789 4.2241 0)
(5.0777 4.15201 0)
(5.13647 4.07908 0)
(5.19419 4.00532 0)
(5.25086 3.93074 0)
(5.30645 3.85536 0)
(5.36096 3.77919 0)
(5.41438 3.70226 0)
(5.46669 3.62457 0)
(5.51789 3.54613 0)
(5.56797 3.46698 0)
(5.61691 3.38712 0)
(5.6647 3.30657 0)
(5.71134 3.22534 0)
(5.75681 3.14346 0)
(5.80111 3.06093 0)
(5.84423 2.97778 0)
(5.88615 2.89403 0)
(5.92688 2.80968 0)
(5.9664 2.72476 0)
(6.0047 2.63929 0)
(6.04177 2.55327 0)
(6.07761 2.46674 0)
(6.11222 2.3797 0)
(6.14558 2.29218 0)
(6.17768 2.20419 0)
(6.20853 2.11575 0)
(6.23811 2.02688 0)
(6.26641 1.9376 0)
(6.29344 1.84792 0)
(6.31919 1.75787 0)
(6.34364 1.66745 0)
(6.36681 1.5767 0)
(6.38867 1.48562 0)
(6.40924 1.39424 0)
(6.42849 1.30258 0)
(6.44644 1.21065 0)
(6.46307 1.11848 0)
(6.47838 1.02607 0)
(6.49237 0.933462 0)
(6.50504 0.840659 0)
(6.51638 0.747685 0)
(6.52639 0.654558 0)
(6.53507 0.561298 0)
(6.54242 0.467923 0)
(6.54843 0.374453 0)
(6.55311 0.280907 0)
(6.55646 0.187303 0)
(6.55846 0.093661 0)
(6.53262 0.0932919 0)
(6.53062 0.186565 0)
(6.52729 0.2798 0)
(6.52263 0.372977 0)
(6.51664 0.466079 0)
(6.50932 0.559086 0)
(6.50067 0.651979 0)
(6.4907 0.744738 0)
(6.4794 0.837346 0)
(6.46678 0.929783 0)
(6.45285 1.02203 0)
(6.4376 1.11407 0)
(6.42103 1.20588 0)
(6.40316 1.29745 0)
(6.38398 1.38875 0)
(6.3635 1.47977 0)
(6.34172 1.57048 0)
(6.31865 1.66088 0)
(6.29428 1.75094 0)
(6.26864 1.84064 0)
(6.24172 1.92996 0)
(6.21352 2.0189 0)
(6.18406 2.10742 0)
(6.15334 2.19551 0)
(6.12136 2.28315 0)
(6.08813 2.37033 0)
(6.05366 2.45702 0)
(6.01796 2.54321 0)
(5.98103 2.62889 0)
(5.94288 2.71402 0)
(5.90352 2.79861 0)
(5.86296 2.88262 0)
(5.8212 2.96605 0)
(5.77825 3.04887 0)
(5.73413 3.13107 0)
(5.68883 3.21263 0)
(5.64238 3.29354 0)
(5.59477 3.37377 0)
(5.54603 3.45332 0)
(5.49615 3.53216 0)
(5.44515 3.61028 0)
(5.39304 3.68767 0)
(5.33983 3.7643 0)
(5.28554 3.84017 0)
(5.23016 3.91525 0)
(5.17372 3.98954 0)
(5.11623 4.06301 0)
(5.05769 4.13565 0)
(4.99812 4.20745 0)
(4.93753 4.27839 0)
(4.87593 4.34846 0)
(4.81334 4.41764 0)
(4.74977 4.48592 0)
(4.68523 4.55329 0)
(4.61973 4.61973 0)
(4.55329 4.68523 0)
(4.48592 4.74977 0)
(4.41764 4.81334 0)
(4.34846 4.87593 0)
(4.27839 4.93753 0)
(4.20745 4.99812 0)
(4.13565 5.05769 0)
(4.06301 5.11623 0)
(3.98954 5.17372 0)
(3.91525 5.23016 0)
(3.84017 5.28554 0)
(3.7643 5.33983 0)
(3.68767 5.39304 0)
(3.61028 5.44515 0)
(3.53216 5.49615 0)
(3.45332 5.54603 0)
(3.37377 5.59477 0)
(3.29354 5.64238 0)
(3.21263 5.68883 0)
(3.13107 5.73413 0)
(3.04887 5.77825 0)
(2.96605 5.8212 0)
(2.88262 5.86296 0)
(2.79861 5.90352 0)
(2.71402 5.94288 0)
(2.62889 5.98103 0)
(2.54321 6.01796 0)
(2.45702 6.05366 0)
(2.37033 6.08813 0)
(2.28315 6.12136 0)
(2.19551 6.15334 0)
(2.10742 6.18406 0)
(2.0189 6.21352 0)
(1.92996 6.24172 0)
(1.84064 6.26864 0)
(1.75094 6.29428 0)
(1.66088 6.31865 0)
(1.57048 6.34172 0)
(1.47977 6.3635 0)
(1.38875 6.38398 0)
(1.29745 6.40316 0)
(1.20588 6.42103 0)
(1.11407 6.4376 0)
(1.02203 6.45285 0)
(0.929783 6.46678 0)
(0.837346 6.4794 0)
(0.744738 6.4907 0)
(0.651979 6.50067 0)
(0.559086 6.50932 0)
(0.466079 6.51664 0)
(0.372977 6.52263 0)
(0.2798 6.52729 0)
(0.186565 6.53062 0)
(0.0932919 6.53262 0)
(6.50713 0.092928 0)
(6.50514 0.185837 0)
(6.50183 0.278708 0)
(6.49718 0.371522 0)
(6.49122 0.464261 0)
(6.48392 0.556905 0)
(6.47531 0.649435 0)
(6.46538 0.741833 0)
(6.45413 0.83408 0)
(6.44156 0.926156 0)
(6.42768 1.01804 0)
(6.41248 1.10972 0)
(6.39598 1.20118 0)
(6.37818 1.29239 0)
(6.35907 1.38333 0)
(6.33867 1.47399 0)
(6.31698 1.56436 0)
(6.294 1.6544 0)
(6.26973 1.74411 0)
(6.24419 1.83346 0)
(6.21737 1.92244 0)
(6.18928 2.01102 0)
(6.15994 2.09919 0)
(6.12933 2.18694 0)
(6.09748 2.27424 0)
(6.06438 2.36108 0)
(6.03005 2.44743 0)
(5.99449 2.53329 0)
(5.9577 2.61863 0)
(5.9197 2.70344 0)
(5.88049 2.78769 0)
(5.84009 2.87138 0)
(5.79849 2.95448 0)
(5.75571 3.03698 0)
(5.71176 3.11886 0)
(5.66664 3.2001 0)
(5.62037 3.28069 0)
(5.57295 3.36061 0)
(5.52439 3.43985 0)
(5.47471 3.51838 0)
(5.42391 3.5962 0)
(5.372 3.67328 0)
(5.319 3.74962 0)
(5.26492 3.82519 0)
(5.20976 3.89998 0)
(5.15354 3.97397 0)
(5.09627 4.04716 0)
(5.03796 4.11952 0)
(4.97862 4.19104 0)
(4.91826 4.2617 0)
(4.85691 4.3315 0)
(4.79456 4.40041 0)
(4.73124 4.46842 0)
(4.66695 4.53553 0)
(4.60171 4.60171 0)
(4.53553 4.66695 0)
(4.46842 4.73124 0)
(4.40041 4.79456 0)
(4.3315 4.85691 0)
(4.2617 4.91826 0)
(4.19104 4.97862 0)
(4.11952 5.03796 0)
(4.04716 5.09627 0)
(3.97397 5.15354 0)
(3.89998 5.20976 0)
(3.82519 5.26492 0)
(3.74962 5.319 0)
(3.67328 5.372 0)
(3.5962 5.42391 0)
(3.51838 5.47471 0)
(3.43985 5.52439 0)
(3.36061 5.57295 0)
(3.28069 5.62037 0)
(3.2001 5.66664 0)
(3.11886 5.71176 0)
(3.03698 5.75571 0)
(2.95448 5.79849 0)
(2.87138 5.84009 0)
(2.78769 5.88049 0)
(2.70344 5.9197 0)
(2.61863 5.9577 0)
(2.53329 5.99449 0)
(2.44743 6.03005 0)
(2.36108 6.06438 0)
(2.27424 6.09748 0)
(2.18694 6.12933 0)
(2.09919 6.15994 0)
(2.01102 6.18928 0)
(1.92244 6.21737 0)
(1.83346 6.24419 0)
(1.74411 6.26973 0)
(1.6544 6.294 0)
(1.56436 6.31698 0)
(1.47399 6.33867 0)
(1.38333 6.35907 0)
(1.29239 6.37818 0)
(1.20118 6.39598 0)
(1.10972 6.41248 0)
(1.01804 6.42768 0)
(0.926156 6.44156 0)
(0.83408 6.45413 0)
(0.741833 6.46538 0)
(0.649435 6.47531 0)
(0.556905 6.48392 0)
(0.464261 6.49122 0)
(0.371522 6.49718 0)
(0.278708 6.50183 0)
(0.185837 6.50514 0)
(0.092928 6.50713 0)
(6.48214 0.0925711 0)
(6.48016 0.185123 0)
(6.47686 0.277638 0)
(6.47223 0.370096 0)
(6.46629 0.462478 0)
(6.45902 0.554766 0)
(6.45044 0.646941 0)
(6.44055 0.738984 0)
(6.42934 0.830876 0)
(6.41682 0.922599 0)
(6.40299 1.01413 0)
(6.38786 1.10546 0)
(6.37142 1.19656 0)
(6.35368 1.28742 0)
(6.33465 1.37802 0)
(6.31433 1.46833 0)
(6.29272 1.55835 0)
(6.26982 1.64805 0)
(6.24565 1.73741 0)
(6.2202 1.82642 0)
(6.19349 1.91505 0)
(6.16551 2.0033 0)
(6.13628 2.09113 0)
(6.10579 2.17854 0)
(6.07406 2.26551 0)
(6.04109 2.35201 0)
(6.00689 2.43803 0)
(5.97146 2.52356 0)
(5.93482 2.60857 0)
(5.89697 2.69305 0)
(5.85791 2.77698 0)
(5.81766 2.86035 0)
(5.77622 2.94313 0)
(5.7336 3.02531 0)
(5.68982 3.10688 0)
(5.64488 3.18781 0)
(5.59878 3.26809 0)
(5.55154 3.3477 0)
(5.50317 3.42663 0)
(5.45368 3.50487 0)
(5.40308 3.58239 0)
(5.35137 3.65917 0)
(5.29858 3.73522 0)
(5.2447 3.8105 0)
(5.18975 3.885 0)
(5.13375 3.95871 0)
(5.07669 4.03161 0)
(5.01861 4.1037 0)
(4.9595 4.17494 0)
(4.89938 4.24533 0)
(4.83826 4.31486 0)
(4.77615 4.38351 0)
(4.71307 4.45126 0)
(4.64902 4.51811 0)
(4.58403 4.58403 0)
(4.51811 4.64902 0)
(4.45126 4.71307 0)
(4.38351 4.77615 0)
(4.31486 4.83826 0)
(4.24533 4.89938 0)
(4.17494 4.9595 0)
(4.1037 5.01861 0)
(4.03161 5.07669 0)
(3.95871 5.13375 0)
(3.885 5.18975 0)
(3.8105 5.2447 0)
(3.73522 5.29858 0)
(3.65917 5.35137 0)
(3.58239 5.40308 0)
(3.50487 5.45368 0)
(3.42663 5.50317 0)
(3.3477 5.55154 0)
(3.26809 5.59878 0)
(3.18781 5.64488 0)
(3.10688 5.68982 0)
(3.02531 5.7336 0)
(2.94313 5.77622 0)
(2.86035 5.81766 0)
(2.77698 5.85791 0)
(2.69305 5.89697 0)
(2.60857 5.93482 0)
(2.52356 5.97146 0)
(2.43803 6.00689 0)
(2.35201 6.04109 0)
(2.26551 6.07406 0)
(2.17854 6.10579 0)
(2.09113 6.13628 0)
(2.0033 6.16551 0)
(1.91505 6.19349 0)
(1.82642 6.2202 0)
(1.73741 6.24565 0)
(1.64805 6.26982 0)
(1.55835 6.29272 0)
(1.46833 6.31433 0)
(1.37802 6.33465 0)
(1.28742 6.35368 0)
(1.19656 6.37142 0)
(1.10546 6.38786 0)
(1.01413 6.40299 0)
(0.922599 6.41682 0)
(0.830876 6.42934 0)
(0.738984 6.44055 0)
(0.646941 6.45044 0)
(0.554766 6.45902 0)
(0.462478 6.46629 0)
(0.370096 6.47223 0)
(0.277638 6.47686 0)
(0.185123 6.48016 0)
(0.0925711 6.48214 0)
(6.45748 0.0922189 0)
(6.45551 0.184419 0)
(6.45221 0.276581 0)
(6.44761 0.368687 0)
(6.44168 0.460718 0)
(6.43445 0.552655 0)
(6.4259 0.64448 0)
(6.41604 0.736172 0)
(6.40488 0.827715 0)
(6.3924 0.919089 0)
(6.37863 1.01028 0)
(6.36355 1.10126 0)
(6.34718 1.19201 0)
(6.32951 1.28252 0)
(6.31055 1.37278 0)
(6.2903 1.46275 0)
(6.26878 1.55242 0)
(6.24597 1.64178 0)
(6.22189 1.7308 0)
(6.19654 1.81947 0)
(6.16993 1.90777 0)
(6.14206 1.99567 0)
(6.11293 2.08318 0)
(6.08256 2.17025 0)
(6.05095 2.25689 0)
(6.01811 2.34306 0)
(5.98404 2.42876 0)
(5.94874 2.51396 0)
(5.91224 2.59865 0)
(5.87453 2.68281 0)
(5.83562 2.76642 0)
(5.79552 2.84947 0)
(5.75424 2.93193 0)
(5.71179 3.0138 0)
(5.66817 3.09506 0)
(5.6234 3.17568 0)
(5.57748 3.25565 0)
(5.53042 3.33497 0)
(5.48224 3.4136 0)
(5.43293 3.49153 0)
(5.38252 3.56876 0)
(5.33101 3.64525 0)
(5.27842 3.72101 0)
(5.22474 3.796 0)
(5.17001 3.87022 0)
(5.11421 3.94365 0)
(5.05738 4.01628 0)
(4.99951 4.08808 0)
(4.94063 4.15906 0)
(4.88074 4.22918 0)
(4.81985 4.29844 0)
(4.75798 4.36683 0)
(4.69514 4.43433 0)
(4.63134 4.50092 0)
(4.56659 4.56659 0)
(4.50092 4.63134 0)
(4.43433 4.69514 0)
(4.36683 4.75798 0)
(4.29844 4.81985 0)
(4.22918 4.88074 0)
(4.15906 4.94063 0)
(4.08808 4.99951 0)
(4.01628 5.05738 0)
(3.94365 5.11421 0)
(3.87022 5.17001 0)
(3.796 5.22474 0)
(3.72101 5.27842 0)
(3.64525 5.33101 0)
(3.56876 5.38252 0)
(3.49153 5.43293 0)
(3.4136 5.48224 0)
(3.33497 5.53042 0)
(3.25565 5.57748 0)
(3.17568 5.6234 0)
(3.09506 5.66817 0)
(3.0138 5.71179 0)
(2.93193 5.75424 0)
(2.84947 5.79552 0)
(2.76642 5.83562 0)
(2.68281 5.87453 0)
(2.59865 5.91224 0)
(2.51396 5.94874 0)
(2.42876 5.98404 0)
(2.34306 6.01811 0)
(2.25689 6.05095 0)
(2.17025 6.08256 0)
(2.08318 6.11293 0)
(1.99567 6.14206 0)
(1.90777 6.16993 0)
(1.81947 6.19654 0)
(1.7308 6.22189 0)
(1.64178 6.24597 0)
(1.55242 6.26878 0)
(1.46275 6.2903 0)
(1.37278 6.31055 0)
(1.28252 6.32951 0)
(1.19201 6.34718 0)
(1.10126 6.36355 0)
(1.01028 6.37863 0)
(0.919089 6.3924 0)
(0.827715 6.40488 0)
(0.736172 6.41604 0)
(0.64448 6.4259 0)
(0.552655 6.43445 0)
(0.460718 6.44168 0)
(0.368687 6.44761 0)
(0.276581 6.45221 0)
(0.184419 6.45551 0)
(0.0922189 6.45748 0)
(6.43324 0.0918727 0)
(6.43127 0.183727 0)
(6.42799 0.275543 0)
(6.4234 0.367304 0)
(6.4175 0.458989 0)
(6.4103 0.550581 0)
(6.40178 0.64206 0)
(6.39196 0.733409 0)
(6.38084 0.824608 0)
(6.36841 0.915639 0)
(6.35469 1.00648 0)
(6.33967 1.09712 0)
(6.32335 1.18754 0)
(6.30575 1.27771 0)
(6.28686 1.36762 0)
(6.26669 1.45726 0)
(6.24525 1.54659 0)
(6.22252 1.63561 0)
(6.19853 1.7243 0)
(6.17328 1.81264 0)
(6.14677 1.9006 0)
(6.119 1.98818 0)
(6.08999 2.07536 0)
(6.05973 2.16211 0)
(6.02824 2.24842 0)
(5.99552 2.33427 0)
(5.96157 2.41964 0)
(5.92642 2.50452 0)
(5.89005 2.58889 0)
(5.85248 2.67274 0)
(5.81372 2.75604 0)
(5.77377 2.83877 0)
(5.73264 2.92093 0)
(5.69035 3.00249 0)
(5.6469 3.08344 0)
(5.60229 3.16376 0)
(5.55654 3.24343 0)
(5.50966 3.32245 0)
(5.46166 3.40078 0)
(5.41254 3.47843 0)
(5.36232 3.55536 0)
(5.311 3.63157 0)
(5.2586 3.70704 0)
(5.20513 3.78175 0)
(5.1506 3.85569 0)
(5.09502 3.92885 0)
(5.0384 4.0012 0)
(4.98075 4.07274 0)
(4.92208 4.14344 0)
(4.86242 4.21331 0)
(4.80176 4.28231 0)
(4.74012 4.35044 0)
(4.67751 4.41768 0)
(4.61395 4.48403 0)
(4.54945 4.54945 0)
(4.48403 4.61395 0)
(4.41768 4.67751 0)
(4.35044 4.74012 0)
(4.28231 4.80176 0)
(4.21331 4.86242 0)
(4.14344 4.92208 0)
(4.07274 4.98075 0)
(4.0012 5.0384 0)
(3.92885 5.09502 0)
(3.85569 5.1506 0)
(3.78175 5.20513 0)
(3.70704 5.2586 0)
(3.63157 5.311 0)
(3.55536 5.36232 0)
(3.47843 5.41254 0)
(3.40078 5.46166 0)
(3.32245 5.50966 0)
(3.24343 5.55654 0)
(3.16376 5.60229 0)
(3.08344 5.6469 0)
(3.00249 5.69035 0)
(2.92093 5.73264 0)
(2.83877 5.77377 0)
(2.75604 5.81372 0)
(2.67274 5.85248 0)
(2.58889 5.89005 0)
(2.50452 5.92642 0)
(2.41964 5.96157 0)
(2.33427 5.99552 0)
(2.24842 6.02824 0)
(2.16211 6.05973 0)
(2.07536 6.08999 0)
(1.98818 6.119 0)
(1.9006 6.14677 0)
(1.81264 6.17328 0)
(1.7243 6.19853 0)
(1.63561 6.22252 0)
(1.54659 6.24525 0)
(1.45726 6.26669 0)
(1.36762 6.28686 0)
(1.27771 6.30575 0)
(1.18754 6.32335 0)
(1.09712 6.33967 0)
(1.00648 6.35469 0)
(0.915639 6.36841 0)
(0.824608 6.38084 0)
(0.733409 6.39196 0)
(0.64206 6.40178 0)
(0.550581 6.4103 0)
(0.458989 6.4175 0)
(0.367304 6.4234 0)
(0.275543 6.42799 0)
(0.183727 6.43127 0)
(0.0918727 6.43324 0)
(6.40936 0.0915317 0)
(6.4074 0.183045 0)
(6.40414 0.274521 0)
(6.39956 0.36594 0)
(6.39369 0.457285 0)
(6.3865 0.548537 0)
(6.37802 0.639677 0)
(6.36824 0.730687 0)
(6.35715 0.821548 0)
(6.34477 0.912241 0)
(6.3311 1.00275 0)
(6.31614 1.09305 0)
(6.29988 1.18313 0)
(6.28235 1.27297 0)
(6.26353 1.36255 0)
(6.24343 1.45185 0)
(6.22207 1.54085 0)
(6.19943 1.62954 0)
(6.17553 1.7179 0)
(6.15037 1.80591 0)
(6.12395 1.89355 0)
(6.09629 1.9808 0)
(6.06738 2.06765 0)
(6.03724 2.15408 0)
(6.00586 2.24007 0)
(5.97327 2.3256 0)
(5.93945 2.41066 0)
(5.90442 2.49523 0)
(5.86819 2.57929 0)
(5.83076 2.66282 0)
(5.79214 2.74581 0)
(5.75234 2.82824 0)
(5.71137 2.91009 0)
(5.66923 2.99135 0)
(5.62594 3.07199 0)
(5.5815 3.15202 0)
(5.53592 3.2314 0)
(5.48921 3.31012 0)
(5.44139 3.38816 0)
(5.39245 3.46552 0)
(5.34241 3.54217 0)
(5.29129 3.61809 0)
(5.23909 3.69328 0)
(5.18581 3.76771 0)
(5.13148 3.84138 0)
(5.07611 3.91426 0)
(5.0197 3.98635 0)
(4.96226 4.05762 0)
(4.90381 4.12807 0)
(4.84437 4.19767 0)
(4.78393 4.26642 0)
(4.72252 4.33429 0)
(4.66015 4.40129 0)
(4.59683 4.46738 0)
(4.53257 4.53257 0)
(4.46738 4.59683 0)
(4.40129 4.66015 0)
(4.33429 4.72252 0)
(4.26642 4.78393 0)
(4.19767 4.84437 0)
(4.12807 4.90381 0)
(4.05762 4.96226 0)
(3.98635 5.0197 0)
(3.91426 5.07611 0)
(3.84138 5.13148 0)
(3.76771 5.18581 0)
(3.69328 5.23909 0)
(3.61809 5.29129 0)
(3.54217 5.34241 0)
(3.46552 5.39245 0)
(3.38816 5.44139 0)
(3.31012 5.48921 0)
(3.2314 5.53592 0)
(3.15202 5.5815 0)
(3.07199 5.62594 0)
(2.99135 5.66923 0)
(2.91009 5.71137 0)
(2.82824 5.75234 0)
(2.74581 5.79214 0)
(2.66282 5.83076 0)
(2.57929 5.86819 0)
(2.49523 5.90442 0)
(2.41066 5.93945 0)
(2.3256 5.97327 0)
(2.24007 6.00586 0)
(2.15408 6.03724 0)
(2.06765 6.06738 0)
(1.9808 6.09629 0)
(1.89355 6.12395 0)
(1.80591 6.15037 0)
(1.7179 6.17553 0)
(1.62954 6.19943 0)
(1.54085 6.22207 0)
(1.45185 6.24343 0)
(1.36255 6.26353 0)
(1.27297 6.28235 0)
(1.18313 6.29988 0)
(1.09305 6.31614 0)
(1.00275 6.3311 0)
(0.912241 6.34477 0)
(0.821548 6.35715 0)
(0.730687 6.36824 0)
(0.639677 6.37802 0)
(0.548537 6.3865 0)
(0.457285 6.39369 0)
(0.36594 6.39956 0)
(0.274521 6.40414 0)
(0.183045 6.4074 0)
(0.0915317 6.40936 0)
(6.38588 0.0911964 0)
(6.38393 0.182374 0)
(6.38067 0.273515 0)
(6.37612 0.364599 0)
(6.37026 0.45561 0)
(6.3631 0.546527 0)
(6.35465 0.637334 0)
(6.3449 0.72801 0)
(6.33386 0.818537 0)
(6.32153 0.908898 0)
(6.3079 0.999074 0)
(6.29299 1.08905 0)
(6.2768 1.17879 0)
(6.25933 1.2683 0)
(6.24058 1.35755 0)
(6.22056 1.44653 0)
(6.19927 1.53521 0)
(6.17671 1.62357 0)
(6.1529 1.71161 0)
(6.12783 1.79929 0)
(6.10151 1.88661 0)
(6.07395 1.97355 0)
(6.04515 2.06008 0)
(6.01512 2.14619 0)
(5.98386 2.23186 0)
(5.95138 2.31708 0)
(5.91769 2.40183 0)
(5.88278 2.48609 0)
(5.84669 2.56984 0)
(5.80939 2.65306 0)
(5.77092 2.73575 0)
(5.73126 2.81787 0)
(5.69044 2.89942 0)
(5.64846 2.98039 0)
(5.60532 3.06074 0)
(5.56105 3.14047 0)