/*--------------------------------*- C++ -*----------------------------------*\
| =========                 |                                                 |
| \\      /  F ield         | OpenFOAM: The Open Source CFD Toolbox           |
|  \\    /   O peration     | Version:  2312                                  |
|   \\  /    A nd           | Website:  www.openfoam.com                      |
|    \\/     M anipulation  |                                                 |
\*---------------------------------------------------------------------------*/
FoamFile
{
    version     2.0;
    format      ascii;
    arch        "LSB;label=32;scalar=64";
    class       volSymmTensorField;
    location    "100";
    object      sigma:Transformed;
}
// * * * * * * * * * * * * * * * * * * * * * * * * * * * * * * * * * * * * * //

dimensions      [1 -1 -2 0 0 0 0];

internalField   nonuniform List<symmTensor> 
12870
(
(-9.83402e+07 -0.0505999 -1.55256e-11 2.36858e+08 -4.97851e-09 -2.92562e+07)
(-9.83402e+07 0.131113 -2.20392e-09 2.36858e+08 2.48925e-09 -2.92562e+07)
(-9.83402e+07 -0.0504573 3.33304e-09 2.36858e+08 4.97851e-09 -2.92562e+07)
(-9.83402e+07 0.124443 7.76282e-12 2.36858e+08 -2.48925e-09 -2.92562e+07)
(-9.83402e+07 -0.351564 -1.1136e-09 2.36858e+08 2.48925e-09 -2.92562e+07)
(-9.83402e+07 0.119495 3.34857e-09 2.36858e+08 -8.88962e-19 -2.92562e+07)
(-9.83402e+07 -0.0357179 -1.1136e-09 2.36858e+08 -2.48925e-09 -2.92562e+07)
(-9.83402e+07 0.248503 2.25049e-09 2.36858e+08 2.48925e-09 -2.92562e+07)
(-9.83402e+07 0.0910426 -4.80512e-18 2.36858e+08 4.97851e-09 -2.92562e+07)
(-9.83402e+07 0.0144389 2.23497e-09 2.36858e+08 2.48925e-09 -2.92562e+07)
(-9.83402e+07 -0.0768973 2.23497e-09 2.36858e+08 -2.48925e-09 -2.92562e+07)
(-9.83402e+07 0.0972583 1.10584e-09 2.36858e+08 -9.95701e-09 -2.92562e+07)
(-9.83402e+07 -0.399017 -4.43888e-09 2.36858e+08 5.98944e-17 -2.92562e+07)
(-9.83402e+07 0.335341 -1.16794e-09 2.36858e+08 5.35998e-17 -2.92562e+07)
(-9.83402e+07 -0.219188 -2.20392e-09 2.36858e+08 -2.48925e-09 -2.92562e+07)
(-9.83402e+07 0.0494923 -2.25049e-09 2.36858e+08 7.46776e-09 -2.92562e+07)
(-9.83402e+07 -0.200958 -7.76281e-12 2.36858e+08 2.48925e-09 -2.92562e+07)
(-9.83402e+07 -0.0885961 1.12137e-09 2.36858e+08 6.81656e-19 -2.92562e+07)
(-9.83402e+07 0.00848423 1.1136e-09 2.36858e+08 -2.48925e-09 -2.92562e+07)
(-9.83402e+07 0.0426336 7.76282e-12 2.36858e+08 -2.48925e-09 -2.92562e+07)
(-9.83402e+07 0.146144 0 2.36858e+08 0 -2.92562e+07)
(-9.83402e+07 -0.218241 -1.1136e-09 2.36858e+08 2.48925e-09 -2.92562e+07)
(-9.83402e+07 0.277611 -5.55167e-18 2.36858e+08 4.97851e-09 -2.92562e+07)
(-9.83402e+07 -0.317354 1.09808e-09 2.36858e+08 -2.48925e-09 -2.92562e+07)
(-9.83402e+07 0.18934 -1.10584e-09 2.36858e+08 -4.97851e-09 -2.92562e+07)
(-9.83402e+07 -0.341992 2.25826e-09 2.36858e+08 4.97851e-09 -2.92562e+07)
(-9.83402e+07 0.0138345 2.19615e-09 2.36858e+08 -4.97851e-09 -2.92562e+07)
(-9.83402e+07 -0.0494801 -2.19615e-09 2.36858e+08 -4.97851e-09 -2.92562e+07)
(-9.83402e+07 0.121943 -1.15242e-09 2.36858e+08 6.51034e-17 -2.92562e+07)
(-9.83402e+07 -0.206579 -3.31752e-09 2.36858e+08 4.97851e-09 -2.92562e+07)
(-9.83402e+07 0.389063 2.21168e-09 2.36858e+08 9.95701e-09 -2.92562e+07)
(-9.83402e+07 -0.212115 -1.55256e-11 2.36858e+08 -4.97851e-09 -2.92562e+07)
(-9.83402e+07 0.108649 -1.09808e-09 2.36858e+08 -2.48925e-09 -2.92562e+07)
(-9.83402e+07 -0.0831887 -1.12913e-09 2.36858e+08 2.48925e-09 -2.92562e+07)
(-9.83402e+07 0.0466723 1.1136e-09 2.36858e+08 -2.48925e-09 -2.92562e+07)
(-9.83402e+07 -0.153995 -1.1136e-09 2.36858e+08 -2.48925e-09 -2.92562e+07)
(-9.83402e+07 0.0205426 -1.55256e-11 2.36858e+08 -4.97851e-09 -2.92562e+07)
(-9.83402e+07 -0.124762 -2.22721e-09 2.36858e+08 -4.97851e-09 -2.92562e+07)
(-9.83402e+07 0.0255812 -4.46994e-09 2.36858e+08 4.97851e-09 -2.92562e+07)
(-9.83402e+07 0.15486 -2.24273e-09 2.36858e+08 9.95701e-09 -2.92562e+07)
(-9.83402e+07 -0.263657 2.21168e-09 2.36858e+08 -3.41057e-17 -2.92562e+07)
(-9.83402e+07 0.0195488 3.10513e-11 2.36858e+08 -9.4955e-18 -2.92562e+07)
(-9.83402e+07 0.232181 2.22721e-09 2.36858e+08 4.97851e-09 -2.92562e+07)
(-9.83402e+07 -0.0471815 -1.55256e-11 2.36858e+08 -4.97851e-09 -2.92562e+07)
(-9.83402e+07 -0.0693909 -1.09031e-09 2.36858e+08 5.5702e-17 -2.92562e+07)
(-9.83402e+07 0.00547434 2.22721e-09 2.36858e+08 4.97851e-09 -2.92562e+07)
(-9.83402e+07 0.255235 0 2.36858e+08 0 -2.92562e+07)
(-9.83402e+07 -0.202881 1.10584e-09 2.36858e+08 -4.97851e-09 -2.92562e+07)
(-9.83402e+07 0.0681534 -1.37402e-17 2.36858e+08 -9.95701e-09 -2.92562e+07)
(-9.83402e+07 -0.20969 -3.34857e-09 2.36858e+08 -4.97851e-09 -2.92562e+07)
(-9.83402e+07 0.197191 -3.3641e-09 2.36858e+08 7.64145e-17 -2.92562e+07)
(-9.83402e+07 -0.0384495 -3.34081e-09 2.36858e+08 7.46776e-09 -2.92562e+07)
(-9.83402e+07 0.0371408 1.09031e-09 2.36858e+08 4.97851e-09 -2.92562e+07)
(-9.83402e+07 0.162063 -2.22721e-09 2.36858e+08 2.26861e-17 -2.92562e+07)
(-9.83402e+07 -0.28457 -1.12137e-09 2.36858e+08 4.97851e-09 -2.92562e+07)
(-9.83402e+07 0.389117 4.46217e-09 2.36858e+08 -2.48925e-09 -2.92562e+07)
(-9.83402e+07 -0.0667575 3.10513e-11 2.36858e+08 -6.82146e-19 -2.92562e+07)
(-9.83402e+07 -0.146407 -4.65769e-11 2.36858e+08 -4.97851e-09 -2.92562e+07)
(-9.83402e+07 -0.139921 -3.30199e-09 2.36858e+08 -4.36608e-17 -2.92562e+07)
(-9.83402e+07 0.237545 2.19615e-09 2.36858e+08 4.97851e-09 -2.92562e+07)
(-9.83402e+07 -0.0734141 -1.08255e-09 2.36858e+08 2.48925e-09 -2.92562e+07)
(-9.83402e+07 0.137544 1.05926e-09 2.36858e+08 -4.97851e-09 -2.92562e+07)
(-9.83402e+07 -0.321025 -3.29423e-09 2.36858e+08 -2.48925e-09 -2.92562e+07)
(-9.83402e+07 -0.0644513 2.20392e-09 2.36858e+08 7.46776e-09 -2.92562e+07)
(-9.83402e+07 -0.24012 1.13689e-09 2.36858e+08 5.23811e-18 -2.92562e+07)
(-9.83402e+07 0.343099 -1.55256e-11 2.36858e+08 1.4603e-17 -2.92562e+07)
(-9.83402e+07 -0.383592 1.12913e-09 2.36858e+08 -2.48925e-09 -2.92562e+07)
(-9.83402e+07 0.339043 -1.12913e-09 2.36858e+08 -2.48925e-09 -2.92562e+07)
(-9.83402e+07 -0.201723 -7.76282e-12 2.36858e+08 -7.46776e-09 -2.92562e+07)
(-9.83402e+07 0.335977 -4.43888e-09 2.36858e+08 4.97851e-09 -2.92562e+07)
(-9.83402e+07 -0.134306 1.07479e-09 2.36858e+08 4.97851e-09 -2.92562e+07)
(-9.83402e+07 -0.0403772 1.55256e-11 2.36858e+08 -4.97851e-09 -2.92562e+07)
(-9.83402e+07 -0.052313 2.25826e-09 2.36858e+08 4.97851e-09 -2.92562e+07)
(-9.83402e+07 -0.0515278 -2.32884e-11 2.36858e+08 2.48925e-09 -2.92562e+07)
(-9.83402e+07 -0.0223367 -1.66709e-18 2.36858e+08 -4.97851e-09 -2.92562e+07)
(-9.83402e+07 -0.143079 -1.1136e-09 2.36858e+08 -2.48925e-09 -2.92562e+07)
(-9.83402e+07 0.0577116 -1.12137e-09 2.36858e+08 9.70613e-18 -2.92562e+07)
(-9.83402e+07 0.216003 7.76281e-12 2.36858e+08 2.48925e-09 -2.92562e+07)
(-9.83402e+07 -0.0938971 3.34857e-09 2.36858e+08 -5.1577e-17 -2.92562e+07)
(-9.83402e+07 0.127668 1.55256e-11 2.36858e+08 -6.75002e-18 -2.92562e+07)
(-9.83402e+07 -0.120618 1.09031e-09 2.36858e+08 -4.97851e-09 -2.92562e+07)
(-9.83402e+07 0.087868 -2.18063e-09 2.36858e+08 4.97851e-09 -2.92562e+07)
(-9.83402e+07 -0.144923 3.28647e-09 2.36858e+08 -6.02207e-17 -2.92562e+07)
(-9.83402e+07 0.130332 -3.30976e-09 2.36858e+08 -7.46776e-09 -2.92562e+07)
(-9.83402e+07 0.0181005 -1.55256e-11 2.36858e+08 4.97851e-09 -2.92562e+07)
(-9.83402e+07 -0.116445 7.76282e-12 2.36858e+08 2.48925e-09 -2.92562e+07)
(-9.83402e+07 0.0197072 1.12137e-09 2.36858e+08 4.97851e-09 -2.92562e+07)
(-9.83402e+07 -0.0600198 1.08255e-09 2.36858e+08 -7.46776e-09 -2.92562e+07)
(-9.83402e+07 0.099384 6.21025e-11 2.36858e+08 -5.78884e-17 -2.92562e+07)
(-9.83402e+07 0.135876 1.07479e-09 2.36858e+08 4.97851e-09 -2.92562e+07)
(-9.83402e+07 -0.1253 -1.09031e-09 2.36858e+08 2.89938e-17 -2.92562e+07)
(-9.83402e+07 0.246335 2.21168e-09 2.36858e+08 1.93002e-17 -2.92562e+07)
(-9.83402e+07 -0.101025 1.28747e-18 2.36858e+08 -9.95701e-09 -2.92562e+07)
(-9.83402e+07 0.123942 -2.19615e-09 2.36858e+08 4.97851e-09 -2.92562e+07)
(-9.83402e+07 -0.1205 -3.10513e-11 2.36858e+08 9.95701e-09 -2.92562e+07)
(-9.83402e+07 -0.0419853 4.46994e-09 2.36858e+08 -4.97851e-09 -2.92562e+07)
(-9.83402e+07 -0.0464103 -1.09808e-09 2.36858e+08 -2.48925e-09 -2.92562e+07)
(-9.83402e+07 -0.171641 6.50106e-18 2.36858e+08 4.97851e-09 -2.92562e+07)
(-9.83402e+07 0.303714 1.09808e-09 2.36858e+08 -2.48925e-09 -2.92562e+07)
(-9.83402e+07 -0.0795001 -1.12137e-09 2.36858e+08 -9.95701e-09 -2.92562e+07)
(-9.83402e+07 0.0452767 3.88141e-11 2.36858e+08 2.48925e-09 -2.92562e+07)
(-9.83402e+07 -0.157595 -1.14465e-09 2.36858e+08 7.46776e-09 -2.92562e+07)
(-9.83402e+07 0.137493 0 2.36858e+08 0 -2.92562e+07)
(-9.83402e+07 -0.0715846 -7.76282e-12 2.36858e+08 -2.48925e-09 -2.92562e+07)
(-9.83402e+07 -0.0491854 -7.76283e-12 2.36858e+08 -7.46776e-09 -2.92562e+07)
(-9.83402e+07 -0.102838 -2.20392e-09 2.36858e+08 2.48925e-09 -2.92562e+07)
(-9.83402e+07 0.265697 1.09031e-09 2.36858e+08 4.97851e-09 -2.92562e+07)
(-9.83402e+07 -0.0217117 -7.76281e-12 2.36858e+08 -7.46776e-09 -2.92562e+07)
(-9.83402e+07 -0.0714191 -2.21168e-09 2.36858e+08 -1.01766e-17 -2.92562e+07)
(-9.83402e+07 0.0349816 -1.55256e-11 2.36858e+08 4.97851e-09 -2.92562e+07)
(-9.70209e+07 -0.0445118 -1.1244e-09 2.33491e+08 1.87314e-18 -2.85829e+07)
(-9.70209e+07 0.0778292 -2.24321e-09 2.33491e+08 -4.86221e-09 -2.85829e+07)
(-9.70209e+07 -0.074581 -8.29851e-13 2.33491e+08 1.60554e-17 -2.85829e+07)
(-9.70209e+07 0.0978404 -7.56949e-12 2.33491e+08 7.29331e-09 -2.85829e+07)
(-9.70209e+07 -0.180443 -2.26872e-09 2.33491e+08 -4.86221e-09 -2.85829e+07)
(-9.70209e+07 0.115333 1.13871e-09 2.33491e+08 -8.5838e-17 -2.85829e+07)
(-9.70209e+07 -0.049514 -3.50477e-11 2.33491e+08 3.39058e-17 -2.85829e+07)
(-9.70209e+07 0.131706 2.46784e-11 2.33491e+08 2.6706e-17 -2.85829e+07)
(-9.70209e+07 0.0308728 -1.15468e-09 2.33491e+08 4.86221e-09 -2.85829e+07)
(-9.70209e+07 0.0404882 1.11124e-09 2.33491e+08 -2.4311e-09 -2.85829e+07)
(-9.70209e+07 -0.0703575 -2.07385e-11 2.33491e+08 -1.01147e-17 -2.85829e+07)
(-9.70209e+07 0.0903019 3.37798e-09 2.33491e+08 4.86221e-09 -2.85829e+07)
(-9.70209e+07 -0.246732 -2.22247e-09 2.33491e+08 4.86221e-09 -2.85829e+07)
(-9.70209e+07 0.179308 -1.12917e-09 2.33491e+08 -4.86221e-09 -2.85829e+07)
(-9.70209e+07 -0.196222 -3.3222e-09 2.33491e+08 4.69292e-17 -2.85829e+07)
(-9.70209e+07 0.0520802 -1.96994e-12 2.33491e+08 2.4311e-09 -2.85829e+07)
(-9.70209e+07 -0.117187 -5.27633e-18 2.33491e+08 -4.86221e-09 -2.85829e+07)
(-9.70209e+07 -0.0364799 1.1216e-09 2.33491e+08 -2.4311e-09 -2.85829e+07)
(-9.70209e+07 -0.00609358 -1.13477e-09 2.33491e+08 5.65007e-18 -2.85829e+07)
(-9.70209e+07 -0.0185699 -2.24881e-09 2.33491e+08 1.66896e-17 -2.85829e+07)
(-9.70209e+07 0.104965 7.56949e-12 2.33491e+08 2.4311e-09 -2.85829e+07)
(-9.70209e+07 -0.14096 -2.24601e-09 2.33491e+08 2.4311e-09 -2.85829e+07)
(-9.70209e+07 0.177567 1.1244e-09 2.33491e+08 -1.50311e-17 -2.85829e+07)
(-9.70209e+07 -0.224858 1.11403e-09 2.33491e+08 2.72565e-18 -2.85829e+07)
(-9.70209e+07 0.136799 -1.13674e-09 2.33491e+08 -7.29331e-09 -2.85829e+07)
(-9.70209e+07 -0.209547 -1.1073e-09 2.33491e+08 -2.4311e-09 -2.85829e+07)
(-9.70209e+07 0.0404527 1.08853e-09 2.33491e+08 4.86221e-09 -2.85829e+07)
(-9.70209e+07 -0.0828498 -4.46931e-09 2.33491e+08 2.4311e-09 -2.85829e+07)
(-9.70209e+07 0.0975458 -1.1216e-09 2.33491e+08 2.4311e-09 -2.85829e+07)
(-9.70209e+07 -0.137239 2.35383e-11 2.33491e+08 -2.4311e-09 -2.85829e+07)
(-9.70209e+07 0.220639 2.25078e-09 2.33491e+08 2.4311e-09 -2.85829e+07)
(-9.70209e+07 -0.137904 2.2261e-09 2.33491e+08 2.4311e-09 -2.85829e+07)
(-9.70209e+07 0.10518 2.55083e-11 2.33491e+08 6.41542e-18 -2.85829e+07)
(-9.70209e+07 -0.0696896 -1.23392e-11 2.33491e+08 -2.4311e-09 -2.85829e+07)
(-9.70209e+07 0.032675 1.23392e-11 2.33491e+08 -2.4311e-09 -2.85829e+07)
(-9.70209e+07 -0.0954237 -4.76971e-12 2.33491e+08 3.13192e-19 -2.85829e+07)
(-9.70209e+07 0.0260584 7.56949e-12 2.33491e+08 -2.4311e-09 -2.85829e+07)
(-9.70209e+07 -0.0697271 -2.21293e-09 2.33491e+08 4.86221e-09 -2.85829e+07)
(-9.70209e+07 -0.0153175 -2.22247e-09 2.33491e+08 4.86221e-09 -2.85829e+07)
(-9.70209e+07 0.0790337 5.59958e-12 2.33491e+08 -4.86221e-09 -2.85829e+07)
(-9.70209e+07 -0.0991317 4.49202e-09 2.33491e+08 -4.86221e-09 -2.85829e+07)
(-9.70209e+07 0.0350473 0 2.33491e+08 0 -2.85829e+07)
(-9.70209e+07 0.0849837 2.24321e-09 2.33491e+08 4.86221e-09 -2.85829e+07)
(-9.70209e+07 -0.0109156 -2.27085e-11 2.33491e+08 2.4311e-09 -2.85829e+07)
(-9.70209e+07 0.0270659 1.03693e-11 2.33491e+08 -4.86221e-09 -2.85829e+07)
(-9.70209e+07 -0.0121914 -1.12243e-09 2.33491e+08 2.4311e-09 -2.85829e+07)
(-9.70209e+07 0.130939 2.2261e-09 2.33491e+08 2.4311e-09 -2.85829e+07)
(-9.70209e+07 -0.10977 -1.03693e-11 2.33491e+08 -4.86221e-09 -2.85829e+07)
(-9.70209e+07 0.104834 -2.23367e-09 2.33491e+08 3.53071e-17 -2.85829e+07)
(-9.70209e+07 -0.124032 2.35384e-11 2.33491e+08 2.4311e-09 -2.85829e+07)
(-9.70209e+07 0.123025 -3.3421e-09 2.33491e+08 6.77102e-17 -2.85829e+07)
(-9.70209e+07 -0.0174835 -3.34967e-09 2.33491e+08 -2.4311e-09 -2.85829e+07)
(-9.70209e+07 0.0195077 -1.11207e-09 2.33491e+08 2.4311e-09 -2.85829e+07)
(-9.70209e+07 0.140807 -2.24321e-09 2.33491e+08 4.86221e-09 -2.85829e+07)
(-9.70209e+07 -0.142999 -1.99087e-11 2.33491e+08 -9.72442e-09 -2.85829e+07)
(-9.70209e+07 0.21183 2.25275e-09 2.33491e+08 -4.86221e-09 -2.85829e+07)
(-9.70209e+07 -0.0687822 -4.49762e-09 2.33491e+08 9.72442e-09 -2.85829e+07)
(-9.70209e+07 0.00611695 1.1017e-09 2.33491e+08 2.4311e-09 -2.85829e+07)
(-9.70209e+07 -0.0699289 -4.46651e-09 2.33491e+08 -4.86221e-09 -2.85829e+07)
(-9.70209e+07 0.115386 2.24321e-09 2.33491e+08 -3.89438e-17 -2.85829e+07)
(-9.70209e+07 -0.0885489 -2.23844e-09 2.33491e+08 4.86221e-09 -2.85829e+07)
(-9.70209e+07 0.0872684 3.3477e-09 2.33491e+08 -1.01551e-16 -2.85829e+07)
(-9.70209e+07 -0.18062 -3.3421e-09 2.33491e+08 -4.86221e-09 -2.85829e+07)
(-9.70209e+07 0.0264994 1.11124e-09 2.33491e+08 -2.4311e-09 -2.85829e+07)
(-9.70209e+07 -0.195268 1.12917e-09 2.33491e+08 4.86221e-09 -2.85829e+07)
(-9.70209e+07 0.205756 4.46734e-09 2.33491e+08 -1.45787e-16 -2.85829e+07)
(-9.70209e+07 -0.241142 -1.1045e-09 2.33491e+08 -3.76298e-17 -2.85829e+07)
(-9.70209e+07 0.252259 -1.99087e-11 2.33491e+08 -8.06824e-19 -2.85829e+07)
(-9.70209e+07 -0.159985 -2.21853e-09 2.33491e+08 6.88792e-17 -2.85829e+07)
(-9.70209e+07 0.204726 -3.35444e-09 2.33491e+08 2.4311e-09 -2.85829e+07)
(-9.70209e+07 -0.082672 -1.03693e-11 2.33491e+08 -4.86221e-09 -2.85829e+07)
(-9.70209e+07 0.0248362 -1.13197e-09 2.33491e+08 -7.29331e-09 -2.85829e+07)
(-9.70209e+07 -0.0301535 -2.22413e-09 2.33491e+08 4.86221e-09 -2.85829e+07)
(-9.70209e+07 -0.0395891 2.21096e-09 2.33491e+08 7.29331e-09 -2.85829e+07)
(-9.70209e+07 0.00156213 1.13197e-09 2.33491e+08 -2.4311e-09 -2.85829e+07)
(-9.70209e+07 -0.0411761 1.03693e-11 2.33491e+08 6.00711e-18 -2.85829e+07)
(-9.70209e+07 0.025523 2.7998e-12 2.33491e+08 -2.4311e-09 -2.85829e+07)
(-9.70209e+07 0.101165 -7.56949e-12 2.33491e+08 -7.29331e-09 -2.85829e+07)
(-9.70209e+07 -0.058317 1.12357e-09 2.33491e+08 7.84383e-18 -2.85829e+07)
(-9.70209e+07 0.108862 2.23367e-09 2.33491e+08 4.86221e-09 -2.85829e+07)
(-9.70209e+07 -0.0797139 1.11403e-09 2.33491e+08 -1.10609e-17 -2.85829e+07)
(-9.70209e+07 0.0749531 -3.35247e-09 2.33491e+08 3.60511e-17 -2.85829e+07)
(-9.70209e+07 -0.0830136 1.10087e-09 2.33491e+08 2.4311e-09 -2.85829e+07)
(-9.70209e+07 0.07613 1.59688e-11 2.33491e+08 -6.7934e-18 -2.85829e+07)
(-9.70209e+07 -0.00397445 7.56949e-12 2.33491e+08 -2.4311e-09 -2.85829e+07)
(-9.70209e+07 -0.0458711 -1.1244e-09 2.33491e+08 4.82726e-18 -2.85829e+07)
(-9.70209e+07 0.0436304 -2.79978e-12 2.33491e+08 2.4311e-09 -2.85829e+07)
(-9.70209e+07 -0.0248445 1.08376e-09 2.33491e+08 -4.86221e-09 -2.85829e+07)
(-9.70209e+07 0.0408029 4.54169e-11 2.33491e+08 -3.21946e-17 -2.85829e+07)
(-9.70209e+07 0.0942115 1.09133e-09 2.33491e+08 7.29331e-09 -2.85829e+07)
(-9.70209e+07 -0.0617581 -1.1216e-09 2.33491e+08 -2.4311e-09 -2.85829e+07)
(-9.70209e+07 0.155651 4.48445e-09 2.33491e+08 -2.4311e-09 -2.85829e+07)
(-9.70209e+07 -0.0834926 -1.1244e-09 2.33491e+08 6.15345e-18 -2.85829e+07)
(-9.70209e+07 0.089936 -2.21293e-09 2.33491e+08 4.86221e-09 -2.85829e+07)
(-9.70209e+07 -0.0728218 1.07899e-09 2.33491e+08 -4.86221e-09 -2.85829e+07)
(-9.70209e+07 -0.0163279 2.26032e-09 2.33491e+08 -2.4311e-09 -2.85829e+07)
(-9.70209e+07 0.00641811 -1.23392e-11 2.33491e+08 7.29331e-09 -2.85829e+07)
(-9.70209e+07 -0.100787 0 2.33491e+08 0 -2.85829e+07)
(-9.70209e+07 0.146339 4.48725e-09 2.33491e+08 -2.42894e-17 -2.85829e+07)
(-9.70209e+07 -0.0785899 -1.23392e-11 2.33491e+08 -7.29331e-09 -2.85829e+07)
(-9.70209e+07 0.0685806 -2.19582e-09 2.33491e+08 2.4311e-09 -2.85829e+07)
(-9.70209e+07 -0.0902921 1.09693e-09 2.33491e+08 7.29331e-09 -2.85829e+07)
(-9.70209e+07 0.0647422 -1.11683e-09 2.33491e+08 -2.4311e-09 -2.85829e+07)
(-9.70209e+07 -0.0567193 -1.13197e-09 2.33491e+08 -2.4311e-09 -2.85829e+07)
(-9.70209e+07 0.0220757 -1.11683e-09 2.33491e+08 -2.4311e-09 -2.85829e+07)
(-9.70209e+07 -0.0613921 -2.22807e-09 2.33491e+08 -7.8023e-18 -2.85829e+07)
(-9.70209e+07 0.117224 1.11403e-09 2.33491e+08 -1.60781e-17 -2.85829e+07)
(-9.70209e+07 -0.0219729 0 2.33491e+08 0 -2.85829e+07)
(-9.70209e+07 -0.00862448 -2.22807e-09 2.33491e+08 -6.7058e-18 -2.85829e+07)
(-9.70209e+07 0.0284619 0 2.33491e+08 0 -2.85829e+07)
(-9.49611e+07 -0.0282081 2.84671e-12 2.29766e+08 -2.36854e-09 -2.76924e+07)
(-9.49611e+07 0.0171966 1.46391e-11 2.29766e+08 -1.16204e-17 -2.76924e+07)
(-9.49611e+07 -0.056419 -4.45468e-09 2.29766e+08 -1.10737e-17 -2.76924e+07)
(-9.49611e+07 0.0427368 -2.21331e-09 2.29766e+08 2.36854e-09 -2.76924e+07)
(-9.49611e+07 -0.00757774 3.33379e-09 2.29766e+08 -5.98978e-18 -2.76924e+07)
(-9.49611e+07 0.0632645 -2.2003e-09 2.29766e+08 -4.73708e-09 -2.76924e+07)
(-9.49611e+07 -0.0334521 -1.1278e-09 2.29766e+08 7.29534e-18 -2.76924e+07)
(-9.49611e+07 0.0204043 -2.2003e-09 2.29766e+08 4.73708e-09 -2.76924e+07)
(-9.49611e+07 -0.0108892 1.10584e-09 2.29766e+08 2.36854e-09 -2.76924e+07)
(-9.49611e+07 0.040714 2.26007e-09 2.29766e+08 1.99665e-18 -2.76924e+07)
(-9.49611e+07 -0.0353407 -1.62652e-11 2.29766e+08 -7.10562e-09 -2.76924e+07)
(-9.49611e+07 0.0434747 2.35847e-11 2.29766e+08 -4.73708e-09 -2.76924e+07)
(-9.49611e+07 -0.0670319 2.21494e-09 2.29766e+08 9.47416e-09 -2.76924e+07)
(-9.49611e+07 0.00791458 -2.19586e-11 2.29766e+08 2.36854e-09 -2.76924e+07)
(-9.49611e+07 -0.108792 1.01662e-11 2.29766e+08 -4.73708e-09 -2.76924e+07)
(-9.49611e+07 0.0125057 2.22958e-09 2.29766e+08 -1.728e-17 -2.76924e+07)
(-9.49611e+07 -0.0424735 1.103e-09 2.29766e+08 -1.03313e-17 -2.76924e+07)
(-9.49611e+07 -0.00350655 2.19586e-11 2.29766e+08 2.36854e-09 -2.76924e+07)
(-9.49611e+07 -0.0200892 5.69341e-12 2.29766e+08 4.73708e-09 -2.76924e+07)
(-9.49611e+07 -0.0495731 4.47623e-09 2.29766e+08 -4.73708e-09 -2.76924e+07)
(-9.49611e+07 0.0235718 2.92781e-11 2.29766e+08 2.33491e-17 -2.76924e+07)
(-9.49611e+07 -0.0509967 1.09852e-09 2.29766e+08 -3.46218e-17 -2.76924e+07)
(-9.49611e+07 0.0425577 3.3647e-09 2.29766e+08 -2.36854e-09 -2.76924e+07)
(-9.49611e+07 -0.0944743 1.11031e-09 2.29766e+08 2.36854e-09 -2.76924e+07)
(-9.49611e+07 0.0398943 -1.11763e-09 2.29766e+08 8.47154e-18 -2.76924e+07)
(-9.49611e+07 -0.0612497 -2.20477e-09 2.29766e+08 -3.46976e-17 -2.76924e+07)
(-9.49611e+07 0.0279722 1.74858e-11 2.29766e+08 2.36854e-09 -2.76924e+07)
(-9.49611e+07 -0.0760038 5.69337e-12 2.29766e+08 1.19757e-17 -2.76924e+07)
(-9.49611e+07 0.0409262 1.103e-09 2.29766e+08 -9.47416e-09 -2.76924e+07)
(-9.49611e+07 -0.0504105 1.12373e-09 2.29766e+08 -2.36854e-09 -2.76924e+07)
(-9.49611e+07 0.0389713 -1.46391e-11 2.29766e+08 4.73708e-09 -2.76924e+07)
(-9.49611e+07 -0.0511207 -2.03325e-11 2.29766e+08 -1.72829e-17 -2.76924e+07)
(-9.49611e+07 0.0562078 1.11479e-09 2.29766e+08 2.36854e-09 -2.76924e+07)
(-9.49611e+07 -0.0489382 -1.74857e-11 2.29766e+08 2.36854e-09 -2.76924e+07)
(-9.49611e+07 0.0123571 -2.23242e-09 2.29766e+08 -2.36854e-09 -2.76924e+07)
(-9.49611e+07 -0.0329996 1.11479e-09 2.29766e+08 -2.36854e-09 -2.76924e+07)
(-9.49611e+07 0.00998844 0 2.29766e+08 0 -2.76924e+07)
(-9.49611e+07 -0.0142053 2.23527e-09 2.29766e+08 -1.833e-17 -2.76924e+07)
(-9.49611e+07 -0.0362356 2.21494e-09 2.29766e+08 -3.48261e-17 -2.76924e+07)
(-9.49611e+07 -0.00677121 -3.49715e-11 2.29766e+08 -4.73708e-09 -2.76924e+07)
(-9.49611e+07 0.0278799 2.24421e-09 2.29766e+08 -4.81608e-17 -2.76924e+07)
(-9.49611e+07 0.0215197 -1.46391e-11 2.29766e+08 4.73708e-09 -2.76924e+07)
(-9.49611e+07 -0.0234438 1.46391e-11 2.29766e+08 4.73708e-09 -2.76924e+07)
(-9.49611e+07 0.0039922 2.20599e-09 2.29766e+08 -9.63397e-17 -2.76924e+07)
(-9.49611e+07 0.0657558 -1.0912e-09 2.29766e+08 2.36854e-09 -2.76924e+07)
(-9.49611e+07 -0.0179511 -1.34185e-11 2.29766e+08 3.16399e-17 -2.76924e+07)
(-9.49611e+07 0.0164623 2.25153e-09 2.29766e+08 -2.36854e-09 -2.76924e+07)
(-9.49611e+07 -0.0242627 -1.12211e-09 2.29766e+08 4.73708e-09 -2.76924e+07)
(-9.49611e+07 0.0785118 -8.94567e-12 2.29766e+08 -9.47416e-09 -2.76924e+07)
(-9.49611e+07 -0.0212719 -1.0969e-09 2.29766e+08 -2.36854e-09 -2.76924e+07)
(-9.49611e+07 0.0297558 1.09568e-09 2.29766e+08 7.10562e-09 -2.76924e+07)
(-9.49611e+07 0.000350828 1.12495e-09 2.29766e+08 2.36854e-09 -2.76924e+07)
(-9.49611e+07 0.00557192 1.30129e-11 2.29766e+08 2.36854e-09 -2.76924e+07)
(-9.49611e+07 0.0662739 -7.31953e-12 2.29766e+08 -2.36854e-09 -2.76924e+07)
(-9.49611e+07 -0.00690076 2.2251e-09 2.29766e+08 -4.73708e-09 -2.76924e+07)
(-9.49611e+07 0.0267394 -2.17834e-09 2.29766e+08 7.10562e-09 -2.76924e+07)
(-9.49611e+07 -0.0449057 -1.05718e-11 2.29766e+08 2.36854e-09 -2.76924e+07)
(-9.49611e+07 0.0835112 2.25438e-09 2.29766e+08 -4.73708e-09 -2.76924e+07)
(-9.49611e+07 -0.0156795 -1.12943e-09 2.29766e+08 -2.36854e-09 -2.76924e+07)
(-9.49611e+07 -0.00118325 2.92781e-11 2.29766e+08 -8.11221e-17 -2.76924e+07)
(-9.49611e+07 -0.081514 1.09852e-09 2.29766e+08 -9.40784e-17 -2.76924e+07)
(-9.49611e+07 0.016895 1.62613e-12 2.29766e+08 -2.36854e-09 -2.76924e+07)
(-9.49611e+07 -0.0501402 1.11031e-09 2.29766e+08 2.36854e-09 -2.76924e+07)
(-9.49611e+07 0.0541786 2.84671e-12 2.29766e+08 -2.36854e-09 -2.76924e+07)
(-9.49611e+07 -0.101579 -7.31953e-12 2.29766e+08 -7.10562e-09 -2.76924e+07)
(-9.49611e+07 0.0363039 2.23852e-09 2.29766e+08 4.73708e-09 -2.76924e+07)
(-9.49611e+07 -0.0744141 -1.62652e-11 2.29766e+08 7.10562e-09 -2.76924e+07)
(-9.49611e+07 0.0959254 2.23974e-09 2.29766e+08 -1.95842e-17 -2.76924e+07)
(-9.49611e+07 -0.0753303 -2.22958e-09 2.29766e+08 3.09079e-17 -2.76924e+07)
(-9.49611e+07 0.0455976 2.23974e-09 2.29766e+08 -6.51981e-17 -2.76924e+07)
(-9.49611e+07 -0.0333152 1.11316e-09 2.29766e+08 -3.79702e-17 -2.76924e+07)
(-9.49611e+07 0.0409086 -2.21046e-09 2.29766e+08 2.55876e-17 -2.76924e+07)
(-9.49611e+07 -0.0121178 -2.21656e-09 2.29766e+08 -2.36854e-09 -2.76924e+07)
(-9.49611e+07 -0.022596 2.22958e-09 2.29766e+08 -4.73708e-09 -2.76924e+07)
(-9.49611e+07 0.0116086 1.10747e-09 2.29766e+08 -3.51851e-18 -2.76924e+07)
(-9.49611e+07 0.0211024 -1.1278e-09 2.29766e+08 1.57801e-17 -2.76924e+07)
(-9.49611e+07 -0.0121946 1.10747e-09 2.29766e+08 -1.45769e-17 -2.76924e+07)
(-9.49611e+07 0.00597011 -2.23527e-09 2.29766e+08 2.68496e-17 -2.76924e+07)
(-9.49611e+07 -0.0101118 -2.22958e-09 2.29766e+08 -4.73708e-09 -2.76924e+07)
(-9.49611e+07 0.0496005 8.94566e-12 2.29766e+08 6.83758e-17 -2.76924e+07)
(-9.49611e+07 -0.0185081 -7.31953e-12 2.29766e+08 7.10562e-09 -2.76924e+07)
(-9.49611e+07 0.0426654 1.01662e-11 2.29766e+08 4.73708e-09 -2.76924e+07)
(-9.49611e+07 -0.0128867 -1.62652e-11 2.29766e+08 -7.10562e-09 -2.76924e+07)
(-9.49611e+07 0.00452398 1.13105e-09 2.29766e+08 -4.73708e-09 -2.76924e+07)
(-9.49611e+07 -0.0103085 -7.31952e-12 2.29766e+08 7.10562e-09 -2.76924e+07)
(-9.49611e+07 0.0154436 -2.23242e-09 2.29766e+08 2.36854e-09 -2.76924e+07)
(-9.49611e+07 0.0338659 -2.2251e-09 2.29766e+08 6.89043e-18 -2.76924e+07)
(-9.49611e+07 0.0105941 1.09568e-09 2.29766e+08 -7.10562e-09 -2.76924e+07)
(-9.49611e+07 -0.00436465 -2.19135e-09 2.29766e+08 3.56594e-17 -2.76924e+07)
(-9.49611e+07 0.0361171 1.09568e-09 2.29766e+08 7.10562e-09 -2.76924e+07)
(-9.49611e+07 0.00326952 1.09568e-09 2.29766e+08 -7.10562e-09 -2.76924e+07)
(-9.49611e+07 0.0542315 2.35847e-11 2.29766e+08 -4.34302e-17 -2.76924e+07)
(-9.49611e+07 -0.0352456 -2.25438e-09 2.29766e+08 4.73708e-09 -2.76924e+07)
(-9.49611e+07 0.0341741 1.46391e-11 2.29766e+08 -2.48909e-17 -2.76924e+07)
(-9.49611e+07 -0.013779 2.21046e-09 2.29766e+08 1.70991e-18 -2.76924e+07)
(-9.49611e+07 -0.00170216 -2.20762e-09 2.29766e+08 -2.36854e-09 -2.76924e+07)
(-9.49611e+07 0.0255542 -1.12048e-09 2.29766e+08 2.36854e-09 -2.76924e+07)
(-9.49611e+07 -0.0201912 1.08836e-09 2.29766e+08 -4.73708e-09 -2.76924e+07)
(-9.49611e+07 0.00665615 1.12373e-09 2.29766e+08 -2.36854e-09 -2.76924e+07)
(-9.49611e+07 -0.0530508 1.09283e-09 2.29766e+08 4.73708e-09 -2.76924e+07)
(-9.49611e+07 0.0555976 -2.21494e-09 2.29766e+08 1.07379e-17 -2.76924e+07)
(-9.49611e+07 -0.0230832 2.22958e-09 2.29766e+08 4.73708e-09 -2.76924e+07)
(-9.49611e+07 0.0063333 1.11316e-09 2.29766e+08 4.73708e-09 -2.76924e+07)
(-9.49611e+07 -0.0295531 1.12048e-09 2.29766e+08 -2.36854e-09 -2.76924e+07)
(-9.49611e+07 0.0530943 -2.2251e-09 2.29766e+08 -4.73708e-09 -2.76924e+07)
(-9.49611e+07 -0.0182985 7.31953e-12 2.29766e+08 -2.36854e-09 -2.76924e+07)
(-9.49611e+07 -0.00686929 -2.23527e-09 2.29766e+08 5.7458e-18 -2.76924e+07)
(-9.49611e+07 -0.0110537 0 2.29766e+08 0 -2.76924e+07)
(-9.49611e+07 0.0295744 0 2.29766e+08 0 -2.76924e+07)
(-9.49611e+07 0.0147052 0 2.29766e+08 0 -2.76924e+07)
(-9.33908e+07 -0.0228348 -1.12629e-09 2.26401e+08 -5.52913e-18 -2.69707e+07)
(-9.33908e+07 -0.00485986 1.42294e-11 2.26401e+08 4.62359e-09 -2.69707e+07)
(-9.33908e+07 -0.0450419 1.11206e-09 2.26401e+08 4.62359e-09 -2.69707e+07)
(-9.33908e+07 0.0287083 -8.42438e-12 2.26401e+08 -9.24718e-09 -2.69707e+07)
(-9.33908e+07 0.0441943 2.23517e-09 2.26401e+08 -4.62359e-09 -2.69707e+07)
(-9.33908e+07 0.0489234 -2.23255e-09 2.26401e+08 9.24718e-09 -2.69707e+07)
(-9.33908e+07 -0.0350088 -8.42438e-12 2.26401e+08 -4.02053e-18 -2.69707e+07)
(-9.33908e+07 -0.0255845 2.24678e-09 2.26401e+08 -4.62359e-09 -2.69707e+07)
(-9.33908e+07 -0.0353677 -3.42638e-11 2.26401e+08 -4.62359e-09 -2.69707e+07)
(-9.33908e+07 0.0346617 1.11468e-09 2.26401e+08 2.38887e-17 -2.69707e+07)
(-9.33908e+07 -0.0220859 4.43084e-09 2.26401e+08 4.62359e-09 -2.69707e+07)
(-9.33908e+07 0.0378455 -2.21252e-09 2.26401e+08 -4.93912e-18 -2.69707e+07)
(-9.33908e+07 -0.0104239 1.42294e-11 2.26401e+08 4.62359e-09 -2.69707e+07)
(-9.33908e+07 -0.033345 -2.84588e-11 2.26401e+08 3.93928e-17 -2.69707e+07)
(-9.33908e+07 -0.0773757 -1.11206e-09 2.26401e+08 -4.62359e-09 -2.69707e+07)
(-9.33908e+07 0.00698882 0 2.26401e+08 0 -2.69707e+07)
(-9.33908e+07 -0.00705363 -1.12629e-09 2.26401e+08 2.59428e-18 -2.69707e+07)
(-9.33908e+07 0.00915045 0 2.26401e+08 0 -2.69707e+07)
(-9.33908e+07 -0.0292986 2.18406e-09 2.26401e+08 -9.24718e-09 -2.69707e+07)
(-9.33908e+07 -0.0634507 2.22936e-09 2.26401e+08 -5.08519e-17 -2.69707e+07)
(-9.33908e+07 -0.00272934 -2.26101e-09 2.26401e+08 9.24718e-09 -2.69707e+07)
(-9.33908e+07 -0.0287046 -3.42638e-11 2.26401e+08 -4.62359e-09 -2.69707e+07)
(-9.33908e+07 -0.00178007 -2.22413e-09 2.26401e+08 4.81518e-17 -2.69707e+07)
(-9.33908e+07 -0.0485735 -1.12629e-09 2.26401e+08 9.24718e-09 -2.69707e+07)
(-9.33908e+07 0.0152231 1.09783e-09 2.26401e+08 1.11123e-17 -2.69707e+07)
(-9.33908e+07 -0.0125465 1.12049e-09 2.26401e+08 -4.62359e-09 -2.69707e+07)
(-9.33908e+07 0.02862 1.10626e-09 2.26401e+08 -6.30784e-18 -2.69707e+07)
(-9.33908e+07 -0.0660227 2.21252e-09 2.26401e+08 -9.75452e-18 -2.69707e+07)
(-9.33908e+07 0.0225498 -1.12629e-09 2.26401e+08 2.11991e-17 -2.69707e+07)
(-9.33908e+07 -0.0259156 2.00344e-11 2.26401e+08 4.68583e-18 -2.69707e+07)
(-9.33908e+07 -0.0274406 1.42294e-11 2.26401e+08 4.62359e-09 -2.69707e+07)
(-9.33908e+07 -0.024785 -8.42439e-12 2.26401e+08 1.09243e-17 -2.69707e+07)
(-9.33908e+07 0.0352175 2.84588e-11 2.26401e+08 -4.4739e-17 -2.69707e+07)
(-9.33908e+07 -0.0355716 -1.12049e-09 2.26401e+08 4.62359e-09 -2.69707e+07)
(-9.33908e+07 0.00237548 1.11206e-09 2.26401e+08 -4.62359e-09 -2.69707e+07)
(-9.33908e+07 -0.00894207 1.42294e-11 2.26401e+08 -4.62359e-09 -2.69707e+07)
(-9.33908e+07 0.010159 -1.42294e-11 2.26401e+08 -4.62359e-09 -2.69707e+07)
(-9.33908e+07 0.00165988 8.42438e-12 2.26401e+08 -1.73748e-17 -2.69707e+07)
(-9.33908e+07 -0.0395862 -2.23255e-09 2.26401e+08 9.24718e-09 -2.69707e+07)
(-9.33908e+07 -0.0240489 -2.26538e-11 2.26401e+08 -4.62359e-09 -2.69707e+07)
(-9.33908e+07 0.0580305 -2.18986e-09 2.26401e+08 -4.62359e-09 -2.69707e+07)
(-9.33908e+07 0.0168722 -1.42294e-11 2.26401e+08 4.62359e-09 -2.69707e+07)
(-9.33908e+07 -0.0627731 0 2.26401e+08 0 -2.69707e+07)
(-9.33908e+07 0.0148425 2.22675e-09 2.26401e+08 4.62359e-09 -2.69707e+07)
(-9.33908e+07 0.0743655 -8.42438e-12 2.26401e+08 1.059e-17 -2.69707e+07)
(-9.33908e+07 -0.0216607 5.56555e-09 2.26401e+08 -4.62359e-09 -2.69707e+07)
(-9.33908e+07 -0.0227972 1.42294e-11 2.26401e+08 4.62359e-09 -2.69707e+07)
(-9.33908e+07 0.0119815 2.20409e-09 2.26401e+08 3.29369e-18 -2.69707e+07)
(-9.33908e+07 0.0697598 2.24097e-09 2.26401e+08 -1.89816e-17 -2.69707e+07)
(-9.33908e+07 0.0075656 -2.22094e-09 2.26401e+08 2.32425e-17 -2.69707e+07)
(-9.33908e+07 0.0041086 1.12049e-09 2.26401e+08 -4.62359e-09 -2.69707e+07)
(-9.33908e+07 0.00200918 1.10626e-09 2.26401e+08 -2.62231e-17 -2.69707e+07)
(-9.33908e+07 -0.00452418 -5.80499e-12 2.26401e+08 4.62359e-09 -2.69707e+07)
(-9.33908e+07 0.0399602 2.20409e-09 2.26401e+08 -5.78169e-19 -2.69707e+07)
(-9.33908e+07 0.0279359 1.12049e-09 2.26401e+08 -4.62359e-09 -2.69707e+07)
(-9.33908e+07 -0.0328592 0 2.26401e+08 0 -2.69707e+07)
(-9.33908e+07 -0.0311565 4.42503e-09 2.26401e+08 -5.82398e-17 -2.69707e+07)
(-9.33908e+07 0.100134 1.12049e-09 2.26401e+08 4.62359e-09 -2.69707e+07)
(-9.33908e+07 0.00902102 2.20409e-09 2.26401e+08 1.25113e-17 -2.69707e+07)
(-9.33908e+07 -0.0412985 1.42294e-11 2.26401e+08 -4.62359e-09 -2.69707e+07)
(-9.33908e+07 -0.0691417 2.22675e-09 2.26401e+08 4.62359e-09 -2.69707e+07)