/*--------------------------------*- C++ -*----------------------------------*\
| =========                 |                                                 |
| \\      /  F ield         | OpenFOAM: The Open Source CFD Toolbox           |
|  \\    /   O peration     | Version:  2312                                  |
|   \\  /    A nd           | Website:  www.openfoam.com                      |
|    \\/     M anipulation  |                                                 |
\*---------------------------------------------------------------------------*/
FoamFile
{
    version     2.0;
    format      ascii;
    arch        "LSB;label=32;scalar=64";
    class       volVectorField;
    location    "100";
    object      U;
}
// * * * * * * * * * * * * * * * * * * * * * * * * * * * * * * * * * * * * * //

dimensions      [0 1 -1 0 0 0 0];

internalField   nonuniform List<vector> 
12870
(
(0.235755 0.00168331 0)
(0.235706 0.00504959 0)
(0.23561 0.00841484 0)
(0.235466 0.0117784 0)
(0.235274 0.0151395 0)
(0.235034 0.0184976 0)
(0.234746 0.0218518 0)
(0.23441 0.0252017 0)
(0.234026 0.0285463 0)
(0.233594 0.0318852 0)
(0.233115 0.0352175 0)
(0.232589 0.0385427 0)
(0.232015 0.04186 0)
(0.231393 0.0451688 0)
(0.230725 0.0484684 0)
(0.230009 0.0517581 0)
(0.229246 0.0550372 0)
(0.228437 0.0583051 0)
(0.227581 0.0615611 0)
(0.226679 0.0648046 0)
(0.225731 0.0680349 0)
(0.224736 0.0712512 0)
(0.223696 0.0744531 0)
(0.22261 0.0776398 0)
(0.221478 0.0808106 0)
(0.220302 0.0839649 0)
(0.21908 0.0871022 0)
(0.217814 0.0902217 0)
(0.216504 0.0933227 0)
(0.215149 0.0964048 0)
(0.213751 0.0994672 0)
(0.212308 0.102509 0)
(0.210823 0.10553 0)
(0.209295 0.10853 0)
(0.207724 0.111508 0)
(0.20611 0.114463 0)
(0.204455 0.117394 0)
(0.202757 0.120302 0)
(0.201019 0.123185 0)
(0.199239 0.126042 0)
(0.197419 0.128875 0)
(0.195559 0.131681 0)
(0.193659 0.13446 0)
(0.191719 0.137211 0)
(0.18974 0.139935 0)
(0.187722 0.14263 0)
(0.185667 0.145296 0)
(0.183573 0.147932 0)
(0.181442 0.150539 0)
(0.179274 0.153114 0)
(0.177069 0.155659 0)
(0.174828 0.158171 0)
(0.172552 0.160651 0)
(0.17024 0.163099 0)
(0.167894 0.165513 0)
(0.165513 0.167894 0)
(0.163099 0.17024 0)
(0.160651 0.172552 0)
(0.158171 0.174828 0)
(0.155659 0.177069 0)
(0.153114 0.179274 0)
(0.150539 0.181442 0)
(0.147932 0.183573 0)
(0.145296 0.185667 0)
(0.14263 0.187722 0)
(0.139935 0.18974 0)
(0.137211 0.191719 0)
(0.13446 0.193659 0)
(0.131681 0.195559 0)
(0.128875 0.197419 0)
(0.126042 0.199239 0)
(0.123185 0.201019 0)
(0.120302 0.202757 0)
(0.117394 0.204455 0)
(0.114463 0.20611 0)
(0.111508 0.207724 0)
(0.10853 0.209295 0)
(0.10553 0.210823 0)
(0.102509 0.212308 0)
(0.0994672 0.213751 0)
(0.0964048 0.215149 0)
(0.0933227 0.216504 0)
(0.0902217 0.217814 0)
(0.0871022 0.21908 0)
(0.0839649 0.220302 0)
(0.0808106 0.221478 0)
(0.0776398 0.22261 0)
(0.0744531 0.223696 0)
(0.0712512 0.224736 0)
(0.0680349 0.225731 0)
(0.0648046 0.226679 0)
(0.0615611 0.227581 0)
(0.0583051 0.228437 0)
(0.0550372 0.229246 0)
(0.0517581 0.230009 0)
(0.0484684 0.230725 0)
(0.0451688 0.231393 0)
(0.04186 0.232015 0)
(0.0385427 0.232589 0)
(0.0352175 0.233115 0)
(0.0318852 0.233594 0)
(0.0285463 0.234026 0)
(0.0252017 0.23441 0)
(0.0218518 0.234746 0)
(0.0184976 0.235034 0)
(0.0151395 0.235274 0)
(0.0117784 0.235466 0)
(0.00841484 0.23561 0)
(0.00504959 0.235706 0)
(0.00168331 0.235755 0)
(0.235386 0.00168068 0)
(0.235338 0.0050417 0)
(0.235242 0.00840169 0)
(0.235098 0.01176 0)
(0.234906 0.0151158 0)
(0.234666 0.0184686 0)
(0.234379 0.0218177 0)
(0.234043 0.0251622 0)
(0.23366 0.0285017 0)
(0.233229 0.0318353 0)
(0.232751 0.0351625 0)
(0.232225 0.0384825 0)
(0.231652 0.0417946 0)
(0.231031 0.0450982 0)
(0.230364 0.0483926 0)
(0.229649 0.0516771 0)
(0.228888 0.0549511 0)
(0.22808 0.0582139 0)
(0.227225 0.0614649 0)
(0.226325 0.0647033 0)
(0.225378 0.0679285 0)
(0.224385 0.0711398 0)
(0.223346 0.0743367 0)
(0.222262 0.0775183 0)
(0.221132 0.0806842 0)
(0.219957 0.0838336 0)
(0.218738 0.086966 0)
(0.217474 0.0900806 0)
(0.216165 0.0931768 0)
(0.214813 0.096254 0)
(0.213416 0.0993116 0)
(0.211976 0.102349 0)
(0.210493 0.105365 0)
(0.208967 0.10836 0)
(0.207399 0.111333 0)
(0.205788 0.114284 0)
(0.204135 0.11721 0)
(0.20244 0.120113 0)
(0.200705 0.122992 0)
(0.198928 0.125845 0)
(0.197111 0.128673 0)
(0.195253 0.131475 0)
(0.193356 0.134249 0)
(0.191419 0.136997 0)
(0.189443 0.139716 0)
(0.187429 0.142407 0)
(0.185376 0.145069 0)
(0.183286 0.147701 0)
(0.181158 0.150303 0)
(0.178993 0.152875 0)
(0.176792 0.155415 0)
(0.174555 0.157924 0)
(0.172282 0.1604 0)
(0.169974 0.162844 0)
(0.167631 0.165255 0)
(0.165255 0.167631 0)
(0.162844 0.169974 0)
(0.1604 0.172282 0)
(0.157924 0.174555 0)
(0.155415 0.176792 0)
(0.152875 0.178993 0)
(0.150303 0.181158 0)
(0.147701 0.183286 0)
(0.145069 0.185376 0)
(0.142407 0.187429 0)
(0.139716 0.189443 0)
(0.136997 0.191419 0)
(0.134249 0.193356 0)
(0.131475 0.195253 0)
(0.128673 0.197111 0)
(0.125845 0.198928 0)
(0.122992 0.200705 0)
(0.120113 0.20244 0)
(0.11721 0.204135 0)
(0.114284 0.205788 0)
(0.111333 0.207399 0)
(0.10836 0.208967 0)
(0.105365 0.210493 0)
(0.102349 0.211976 0)
(0.0993116 0.213416 0)
(0.096254 0.214813 0)
(0.0931768 0.216165 0)
(0.0900806 0.217474 0)
(0.086966 0.218738 0)
(0.0838336 0.219957 0)
(0.0806842 0.221132 0)
(0.0775183 0.222262 0)
(0.0743367 0.223346 0)
(0.0711398 0.224385 0)
(0.0679285 0.225378 0)
(0.0647033 0.226325 0)
(0.0614649 0.227225 0)
(0.0582139 0.22808 0)
(0.0549511 0.228888 0)
(0.0516771 0.229649 0)
(0.0483926 0.230364 0)
(0.0450982 0.231031 0)
(0.0417946 0.231652 0)
(0.0384825 0.232225 0)
(0.0351625 0.232751 0)
(0.0318353 0.233229 0)
(0.0285017 0.23366 0)
(0.0251622 0.234043 0)
(0.0218177 0.234379 0)
(0.0184686 0.234666 0)
(0.0151158 0.234906 0)
(0.01176 0.235098 0)
(0.00840169 0.235242 0)
(0.0050417 0.235338 0)
(0.00168068 0.235386 0)
(0.235016 0.00167804 0)
(0.234968 0.00503377 0)
(0.234872 0.00838848 0)
(0.234728 0.0117415 0)
(0.234537 0.0150921 0)
(0.234297 0.0184396 0)
(0.23401 0.0217834 0)
(0.233675 0.0251227 0)
(0.233293 0.0284569 0)
(0.232863 0.0317853 0)
(0.232385 0.0351072 0)
(0.23186 0.038422 0)
(0.231288 0.0417289 0)
(0.230668 0.0450273 0)
(0.230002 0.0483165 0)
(0.229288 0.0515959 0)
(0.228528 0.0548648 0)
(0.227721 0.0581224 0)
(0.226868 0.0613683 0)
(0.225969 0.0646016 0)
(0.225023 0.0678217 0)
(0.224032 0.071028 0)
(0.222995 0.0742198 0)
(0.221912 0.0773965 0)
(0.220785 0.0805574 0)
(0.219612 0.0837019 0)
(0.218394 0.0868293 0)
(0.217132 0.089939 0)
(0.215826 0.0930304 0)
(0.214475 0.0961027 0)
(0.213081 0.0991555 0)
(0.211643 0.102188 0)
(0.210163 0.1052 0)
(0.208639 0.10819 0)
(0.207073 0.111158 0)
(0.205464 0.114104 0)
(0.203814 0.117026 0)
(0.202122 0.119925 0)
(0.200389 0.122799 0)
(0.198615 0.125648 0)
(0.196801 0.128471 0)
(0.194946 0.131268 0)
(0.193052 0.134038 0)
(0.191118 0.136781 0)
(0.189146 0.139496 0)
(0.187134 0.142183 0)
(0.185085 0.144841 0)
(0.182998 0.147469 0)
(0.180873 0.150067 0)
(0.178712 0.152635 0)
(0.176514 0.155171 0)
(0.174281 0.157676 0)
(0.172011 0.160148 0)
(0.169707 0.162588 0)
(0.167368 0.164995 0)
(0.164995 0.167368 0)
(0.162588 0.169707 0)
(0.160148 0.172011 0)
(0.157676 0.174281 0)
(0.155171 0.176514 0)
(0.152635 0.178712 0)
(0.150067 0.180873 0)
(0.147469 0.182998 0)
(0.144841 0.185085 0)
(0.142183 0.187134 0)
(0.139496 0.189146 0)
(0.136781 0.191118 0)
(0.134038 0.193052 0)
(0.131268 0.194946 0)
(0.128471 0.196801 0)
(0.125648 0.198615 0)
(0.122799 0.200389 0)
(0.119925 0.202122 0)
(0.117026 0.203814 0)
(0.114104 0.205464 0)
(0.111158 0.207073 0)
(0.10819 0.208639 0)
(0.1052 0.210163 0)
(0.102188 0.211643 0)
(0.0991555 0.213081 0)
(0.0961027 0.214475 0)
(0.0930304 0.215826 0)
(0.089939 0.217132 0)
(0.0868293 0.218394 0)
(0.0837019 0.219612 0)
(0.0805574 0.220785 0)
(0.0773965 0.221912 0)
(0.0742198 0.222995 0)
(0.071028 0.224032 0)
(0.0678217 0.225023 0)
(0.0646016 0.225969 0)
(0.0613683 0.226868 0)
(0.0581224 0.227721 0)
(0.0548648 0.228528 0)
(0.0515959 0.229288 0)
(0.0483165 0.230002 0)
(0.0450273 0.230668 0)
(0.0417289 0.231288 0)
(0.038422 0.23186 0)
(0.0351072 0.232385 0)
(0.0317853 0.232863 0)
(0.0284569 0.233293 0)
(0.0251227 0.233675 0)
(0.0217834 0.23401 0)
(0.0184396 0.234297 0)
(0.0150921 0.234537 0)
(0.0117415 0.234728 0)
(0.00838848 0.234872 0)
(0.00503377 0.234968 0)
(0.00167804 0.235016 0)
(0.234645 0.00167539 0)
(0.234597 0.00502582 0)
(0.234501 0.00837522 0)
(0.234357 0.0117229 0)
(0.234166 0.0150682 0)
(0.233927 0.0184105 0)
(0.23364 0.0217489 0)
(0.233306 0.025083 0)
(0.232924 0.0284119 0)
(0.232495 0.0317351 0)
(0.232018 0.0350517 0)
(0.231494 0.0383612 0)
(0.230922 0.0416629 0)
(0.230304 0.0449561 0)
(0.229638 0.0482402 0)
(0.228926 0.0515144 0)
(0.228167 0.0547781 0)
(0.227362 0.0580306 0)
(0.22651 0.0612713 0)
(0.225612 0.0644995 0)
(0.224668 0.0677145 0)
(0.223678 0.0709158 0)
(0.222642 0.0741025 0)
(0.221562 0.0772742 0)
(0.220436 0.0804301 0)
(0.219265 0.0835696 0)
(0.218049 0.0866921 0)
(0.216789 0.0897969 0)
(0.215484 0.0928833 0)
(0.214136 0.0959509 0)
(0.212744 0.0989988 0)
(0.211309 0.102027 0)
(0.20983 0.105034 0)
(0.208309 0.108019 0)
(0.206745 0.110983 0)
(0.20514 0.113924 0)
(0.203492 0.116841 0)
(0.201803 0.119735 0)
(0.200072 0.122605 0)
(0.198301 0.125449 0)
(0.19649 0.128268 0)
(0.194638 0.131061 0)
(0.192747 0.133826 0)
(0.190816 0.136565 0)
(0.188847 0.139276 0)
(0.186839 0.141958 0)
(0.184792 0.144612 0)
(0.182709 0.147236 0)
(0.180588 0.14983 0)
(0.17843 0.152393 0)
(0.176235 0.154926 0)
(0.174005 0.157426 0)
(0.171739 0.159895 0)
(0.169439 0.162331 0)
(0.167103 0.164734 0)
(0.164734 0.167103 0)
(0.162331 0.169439 0)
(0.159895 0.171739 0)
(0.157426 0.174005 0)
(0.154926 0.176235 0)
(0.152393 0.17843 0)
(0.14983 0.180588 0)
(0.147236 0.182709 0)
(0.144612 0.184792 0)
(0.141958 0.186839 0)
(0.139276 0.188847 0)
(0.136565 0.190816 0)
(0.133826 0.192747 0)
(0.131061 0.194638 0)
(0.128268 0.19649 0)
(0.125449 0.198301 0)
(0.122605 0.200072 0)
(0.119735 0.201803 0)
(0.116841 0.203492 0)
(0.113924 0.20514 0)
(0.110983 0.206745 0)
(0.108019 0.208309 0)
(0.105034 0.20983 0)
(0.102027 0.211309 0)
(0.0989988 0.212744 0)
(0.0959509 0.214136 0)
(0.0928833 0.215484 0)
(0.0897969 0.216789 0)
(0.0866921 0.218049 0)
(0.0835696 0.219265 0)
(0.0804301 0.220436 0)
(0.0772742 0.221562 0)
(0.0741025 0.222642 0)
(0.0709158 0.223678 0)
(0.0677145 0.224668 0)
(0.0644995 0.225612 0)
(0.0612713 0.22651 0)
(0.0580306 0.227362 0)
(0.0547781 0.228167 0)
(0.0515144 0.228926 0)
(0.0482402 0.229638 0)
(0.0449561 0.230304 0)
(0.0416629 0.230922 0)
(0.0383612 0.231494 0)
(0.0350517 0.232018 0)
(0.0317351 0.232495 0)
(0.0284119 0.232924 0)
(0.025083 0.233306 0)
(0.0217489 0.23364 0)
(0.0184105 0.233927 0)
(0.0150682 0.234166 0)
(0.0117229 0.234357 0)
(0.00837522 0.234501 0)
(0.00502582 0.234597 0)
(0.00167539 0.234645 0)
(0.234273 0.00167273 0)
(0.234225 0.00501785 0)
(0.234129 0.00836195 0)
(0.233986 0.0117043 0)
(0.233795 0.0150444 0)
(0.233556 0.0183813 0)
(0.23327 0.0217145 0)
(0.232936 0.0250432 0)
(0.232555 0.0283669 0)
(0.232126 0.0316848 0)
(0.23165 0.0349962 0)
(0.231127 0.0383005 0)
(0.230556 0.0415969 0)
(0.229939 0.0448849 0)
(0.229274 0.0481637 0)
(0.228563 0.0514327 0)
(0.227805 0.0546913 0)
(0.227001 0.0579386 0)
(0.226151 0.0611742 0)
(0.225254 0.0643973 0)
(0.224312 0.0676072 0)
(0.223323 0.0708034 0)
(0.22229 0.0739851 0)
(0.22121 0.0771517 0)
(0.220086 0.0803026 0)
(0.218917 0.0834372 0)
(0.217703 0.0865547 0)
(0.216445 0.0896545 0)
(0.215143 0.0927361 0)
(0.213797 0.0957988 0)
(0.212407 0.0988419 0)
(0.210974 0.101865 0)
(0.209498 0.104867 0)
(0.207979 0.107848 0)
(0.206418 0.110807 0)
(0.204815 0.113743 0)
(0.203169 0.116656 0)
(0.201483 0.119545 0)
(0.199755 0.12241 0)
(0.197987 0.12525 0)
(0.196178 0.128065 0)
(0.19433 0.130853 0)
(0.192441 0.133614 0)
(0.190514 0.136349 0)
(0.188547 0.139055 0)
(0.186542 0.141733 0)
(0.1845 0.144383 0)
(0.182419 0.147003 0)
(0.180301 0.149592 0)
(0.178147 0.152152 0)
(0.175956 0.15468 0)
(0.173729 0.157177 0)
(0.171467 0.159642 0)
(0.16917 0.162074 0)
(0.166839 0.164473 0)
(0.164473 0.166839 0)
(0.162074 0.16917 0)
(0.159642 0.171467 0)
(0.157177 0.173729 0)
(0.15468 0.175956 0)
(0.152152 0.178147 0)
(0.149592 0.180301 0)
(0.147003 0.182419 0)
(0.144383 0.1845 0)
(0.141733 0.186542 0)
(0.139055 0.188547 0)
(0.136349 0.190514 0)
(0.133614 0.192441 0)
(0.130853 0.19433 0)
(0.128065 0.196178 0)
(0.12525 0.197987 0)
(0.12241 0.199755 0)
(0.119545 0.201483 0)
(0.116656 0.203169 0)
(0.113743 0.204815 0)
(0.110807 0.206418 0)
(0.107848 0.207979 0)
(0.104867 0.209498 0)
(0.101865 0.210974 0)
(0.0988419 0.212407 0)
(0.0957988 0.213797 0)
(0.0927361 0.215143 0)
(0.0896545 0.216445 0)
(0.0865547 0.217703 0)
(0.0834372 0.218917 0)
(0.0803026 0.220086 0)
(0.0771517 0.22121 0)
(0.0739851 0.22229 0)
(0.0708034 0.223323 0)
(0.0676072 0.224312 0)
(0.0643973 0.225254 0)
(0.0611742 0.226151 0)
(0.0579386 0.227001 0)
(0.0546913 0.227805 0)
(0.0514327 0.228563 0)
(0.0481637 0.229274 0)
(0.0448849 0.229939 0)
(0.0415969 0.230556 0)
(0.0383005 0.231127 0)
(0.0349962 0.23165 0)
(0.0316848 0.232126 0)
(0.0283669 0.232555 0)
(0.0250432 0.232936 0)
(0.0217145 0.23327 0)
(0.0183813 0.233556 0)
(0.0150444 0.233795 0)
(0.0117043 0.233986 0)
(0.00836195 0.234129 0)
(0.00501785 0.234225 0)
(0.00167273 0.234273 0)
(0.2339 0.00167007 0)
(0.233852 0.00500986 0)
(0.233757 0.00834864 0)
(0.233614 0.0116857 0)
(0.233423 0.0150204 0)
(0.233185 0.018352 0)
(0.232899 0.0216799 0)
(0.232565 0.0250034 0)
(0.232185 0.0283217 0)
(0.231757 0.0316343 0)
(0.231281 0.0349405 0)
(0.230759 0.0382395 0)
(0.230189 0.0415307 0)
(0.229573 0.0448134 0)
(0.228909 0.048087 0)
(0.228199 0.0513509 0)
(0.227443 0.0546042 0)
(0.22664 0.0578464 0)
(0.225791 0.0610768 0)
(0.224896 0.0642947 0)
(0.223955 0.0674996 0)
(0.222968 0.0706906 0)
(0.221936 0.0738673 0)
(0.220858 0.0770289 0)
(0.219736 0.0801748 0)
(0.218569 0.0833043 0)
(0.217357 0.0864169 0)
(0.216101 0.0895118 0)
(0.2148 0.0925885 0)
(0.213456 0.0956463 0)
(0.212069 0.0986846 0)
(0.210638 0.101703 0)
(0.209164 0.1047 0)
(0.207648 0.107676 0)
(0.206089 0.11063 0)
(0.204488 0.113562 0)
(0.202846 0.11647 0)
(0.201162 0.119355 0)
(0.199437 0.122215 0)
(0.197672 0.125051 0)
(0.195866 0.127861 0)
(0.19402 0.130644 0)
(0.192135 0.133402 0)
(0.19021 0.136132 0)
(0.188247 0.138834 0)
(0.186245 0.141508 0)
(0.184206 0.144153 0)
(0.182129 0.146769 0)
(0.180014 0.149354 0)
(0.177863 0.15191 0)
(0.175676 0.154434 0)
(0.173453 0.156927 0)
(0.171194 0.159387 0)
(0.168901 0.161816 0)
(0.166573 0.164211 0)
(0.164211 0.166573 0)
(0.161816 0.168901 0)
(0.159387 0.171194 0)
(0.156927 0.173453 0)
(0.154434 0.175676 0)
(0.15191 0.177863 0)
(0.149354 0.180014 0)
(0.146769 0.182129 0)
(0.144153 0.184206 0)
(0.141508 0.186245 0)
(0.138834 0.188247 0)
(0.136132 0.19021 0)
(0.133402 0.192135 0)
(0.130644 0.19402 0)
(0.127861 0.195866 0)
(0.125051 0.197672 0)
(0.122215 0.199437 0)
(0.119355 0.201162 0)
(0.11647 0.202846 0)
(0.113562 0.204488 0)
(0.11063 0.206089 0)
(0.107676 0.207648 0)
(0.1047 0.209164 0)
(0.101703 0.210638 0)
(0.0986846 0.212069 0)
(0.0956463 0.213456 0)
(0.0925885 0.2148 0)
(0.0895118 0.216101 0)
(0.0864169 0.217357 0)
(0.0833043 0.218569 0)
(0.0801748 0.219736 0)
(0.0770289 0.220858 0)
(0.0738673 0.221936 0)
(0.0706906 0.222968 0)
(0.0674996 0.223955 0)
(0.0642947 0.224896 0)
(0.0610768 0.225791 0)
(0.0578464 0.22664 0)
(0.0546042 0.227443 0)
(0.0513509 0.228199 0)
(0.048087 0.228909 0)
(0.0448134 0.229573 0)
(0.0415307 0.230189 0)
(0.0382395 0.230759 0)
(0.0349405 0.231281 0)
(0.0316343 0.231757 0)
(0.0283217 0.232185 0)
(0.0250034 0.232565 0)
(0.0216799 0.232899 0)
(0.018352 0.233185 0)
(0.0150204 0.233423 0)
(0.0116857 0.233614 0)
(0.00834864 0.233757 0)
(0.00500986 0.233852 0)
(0.00167007 0.2339 0)
(0.233526 0.0016674 0)
(0.233479 0.00500187 0)
(0.233384 0.00833532 0)
(0.233241 0.0116671 0)
(0.23305 0.0149964 0)
(0.232813 0.0183227 0)
(0.232527 0.0216453 0)
(0.232194 0.0249635 0)
(0.231814 0.0282765 0)
(0.231387 0.0315839 0)
(0.230912 0.0348847 0)
(0.230391 0.0381785 0)
(0.229822 0.0414644 0)
(0.229206 0.0447419 0)
(0.228544 0.0480103 0)
(0.227835 0.0512689 0)
(0.22708 0.0545171 0)
(0.226278 0.0577541 0)
(0.225431 0.0609793 0)
(0.224537 0.0641922 0)
(0.223597 0.0673919 0)
(0.222612 0.0705779 0)
(0.221582 0.0737494 0)
(0.220506 0.076906 0)
(0.219385 0.0800469 0)
(0.21822 0.0831714 0)
(0.21701 0.086279 0)
(0.215756 0.089369 0)
(0.214458 0.0924408 0)
(0.213116 0.0954937 0)
(0.21173 0.0985271 0)
(0.210302 0.10154 0)
(0.208831 0.104533 0)
(0.207317 0.107504 0)
(0.20576 0.110454 0)
(0.204162 0.113381 0)
(0.202522 0.116285 0)
(0.200841 0.119165 0)
(0.199119 0.12202 0)
(0.197356 0.124851 0)
(0.195554 0.127657 0)
(0.193711 0.130436 0)
(0.191828 0.133189 0)
(0.189907 0.135914 0)
(0.187947 0.138612 0)
(0.185948 0.141282 0)
(0.183912 0.143923 0)
(0.181838 0.146534 0)
(0.179727 0.149116 0)
(0.177579 0.151667 0)
(0.175396 0.154187 0)
(0.173176 0.156676 0)
(0.170921 0.159133 0)
(0.168631 0.161558 0)
(0.166307 0.163949 0)
(0.163949 0.166307 0)
(0.161558 0.168631 0)
(0.159133 0.170921 0)
(0.156676 0.173176 0)
(0.154187 0.175396 0)
(0.151667 0.177579 0)
(0.149116 0.179727 0)
(0.146534 0.181838 0)
(0.143923 0.183912 0)
(0.141282 0.185948 0)
(0.138612 0.187947 0)
(0.135914 0.189907 0)
(0.133189 0.191828 0)
(0.130436 0.193711 0)
(0.127657 0.195554 0)
(0.124851 0.197356 0)
(0.12202 0.199119 0)
(0.119165 0.200841 0)
(0.116285 0.202522 0)
(0.113381 0.204162 0)
(0.110454 0.20576 0)
(0.107504 0.207317 0)
(0.104533 0.208831 0)
(0.10154 0.210302 0)
(0.0985271 0.21173 0)
(0.0954937 0.213116 0)
(0.0924408 0.214458 0)
(0.089369 0.215756 0)
(0.086279 0.21701 0)
(0.0831714 0.21822 0)
(0.0800469 0.219385 0)
(0.076906 0.220506 0)
(0.0737494 0.221582 0)
(0.0705779 0.222612 0)
(0.0673919 0.223597 0)
(0.0641922 0.224537 0)
(0.0609793 0.225431 0)
(0.0577541 0.226278 0)
(0.0545171 0.22708 0)
(0.0512689 0.227835 0)
(0.0480103 0.228544 0)
(0.0447419 0.229206 0)
(0.0414644 0.229822 0)
(0.0381785 0.230391 0)
(0.0348847 0.230912 0)
(0.0315839 0.231387 0)
(0.0282765 0.231814 0)
(0.0249635 0.232194 0)
(0.0216453 0.232527 0)
(0.0183227 0.232813 0)
(0.0149964 0.23305 0)
(0.0116671 0.233241 0)
(0.00833532 0.233384 0)
(0.00500187 0.233479 0)
(0.0016674 0.233526 0)
(0.233153 0.00166473 0)
(0.233105 0.00499386 0)
(0.23301 0.00832198 0)
(0.232867 0.0116484 0)
(0.232677 0.0149724 0)
(0.23244 0.0182934 0)
(0.232155 0.0216107 0)
(0.231823 0.0249235 0)
(0.231443 0.0282313 0)
(0.231016 0.0315333 0)
(0.230543 0.0348289 0)
(0.230022 0.0381174 0)
(0.229454 0.0413981 0)
(0.228839 0.0446703 0)
(0.228178 0.0479335 0)
(0.227471 0.0511869 0)
(0.226716 0.0544298 0)
(0.225916 0.0576616 0)
(0.22507 0.0608817 0)
(0.224177 0.0640894 0)
(0.223239 0.067284 0)
(0.222256 0.0704649 0)
(0.221227 0.0736314 0)
(0.220153 0.0767829 0)
(0.219034 0.0799187 0)
(0.217871 0.0830383 0)
(0.216663 0.0861409 0)
(0.21541 0.0892259 0)
(0.214114 0.0922928 0)
(0.212775 0.0953408 0)
(0.211392 0.0983694 0)
(0.209965 0.101378 0)
(0.208496 0.104366 0)
(0.206985 0.107332 0)
(0.205431 0.110277 0)
(0.203835 0.113199 0)
(0.202198 0.116098 0)
(0.20052 0.118974 0)
(0.1988 0.121825 0)
(0.197041 0.124651 0)
(0.19524 0.127452 0)
(0.193401 0.130227 0)
(0.191521 0.132976 0)
(0.189603 0.135697 0)
(0.187646 0.138391 0)
(0.185651 0.141056 0)
(0.183618 0.143693 0)
(0.181547 0.1463 0)
(0.179439 0.148877 0)
(0.177295 0.151424 0)
(0.175115 0.153941 0)
(0.172899 0.156426 0)
(0.170648 0.158878 0)
(0.168361 0.161299 0)
(0.166041 0.163687 0)
(0.163687 0.166041 0)
(0.161299 0.168361 0)
(0.158878 0.170648 0)
(0.156426 0.172899 0)
(0.153941 0.175115 0)
(0.151424 0.177295 0)
(0.148877 0.179439 0)
(0.1463 0.181547 0)
(0.143693 0.183618 0)
(0.141056 0.185651 0)
(0.138391 0.187646 0)
(0.135697 0.189603 0)
(0.132976 0.191521 0)
(0.130227 0.193401 0)
(0.127452 0.19524 0)
(0.124651 0.197041 0)
(0.121825 0.1988 0)
(0.118974 0.20052 0)
(0.116098 0.202198 0)
(0.113199 0.203835 0)
(0.110277 0.205431 0)
(0.107332 0.206985 0)
(0.104366 0.208496 0)
(0.101378 0.209965 0)
(0.0983694 0.211392 0)
(0.0953408 0.212775 0)
(0.0922928 0.214114 0)
(0.0892259 0.21541 0)
(0.0861409 0.216663 0)
(0.0830383 0.217871 0)
(0.0799187 0.219034 0)
(0.0767829 0.220153 0)
(0.0736314 0.221227 0)
(0.0704649 0.222256 0)
(0.067284 0.223239 0)
(0.0640894 0.224177 0)
(0.0608817 0.22507 0)
(0.0576616 0.225916 0)
(0.0544298 0.226716 0)
(0.0511869 0.227471 0)
(0.0479335 0.228178 0)
(0.0446703 0.228839 0)
(0.0413981 0.229454 0)
(0.0381174 0.230022 0)
(0.0348289 0.230543 0)
(0.0315333 0.231016 0)
(0.0282313 0.231443 0)
(0.0249235 0.231823 0)
(0.0216107 0.232155 0)
(0.0182934 0.23244 0)
(0.0149724 0.232677 0)
(0.0116484 0.232867 0)
(0.00832198 0.23301 0)
(0.00499386 0.233105 0)
(0.00166473 0.233153 0)
(0.232779 0.00166207 0)
(0.232731 0.00498586 0)
(0.232636 0.00830863 0)
(0.232494 0.0116297 0)
(0.232304 0.0149484 0)
(0.232067 0.0182641 0)
(0.231783 0.021576 0)
(0.231451 0.0248836 0)
(0.231072 0.028186 0)
(0.230646 0.0314827 0)
(0.230173 0.034773 0)
(0.229653 0.0380562 0)
(0.229086 0.0413317 0)
(0.228473 0.0445987 0)
(0.227812 0.0478566 0)
(0.227106 0.0511048 0)
(0.226353 0.0543425 0)
(0.225554 0.0575692 0)
(0.224709 0.0607841 0)
(0.223818 0.0639866 0)
(0.222881 0.0671761 0)
(0.221899 0.0703519 0)
(0.220872 0.0735133 0)
(0.2198 0.0766598 0)
(0.218683 0.0797906 0)
(0.217521 0.0829051 0)
(0.216315 0.0860028 0)
(0.215065 0.0890829 0)
(0.213771 0.0921448 0)
(0.212434 0.095188 0)
(0.211053 0.0982117 0)
(0.209629 0.101215 0)
(0.208162 0.104198 0)
(0.206653 0.10716 0)
(0.205102 0.1101 0)
(0.203509 0.113018 0)
(0.201874 0.115912 0)
(0.200198 0.118783 0)
(0.198482 0.12163 0)
(0.196725 0.124452 0)
(0.194927 0.127248 0)
(0.193091 0.130018 0)
(0.191214 0.132762 0)
(0.189299 0.135479 0)
(0.187345 0.138169 0)
(0.185353 0.14083 0)
(0.183323 0.143462 0)
(0.181256 0.146065 0)
(0.179152 0.148639 0)
(0.177011 0.151182 0)
(0.174834 0.153694 0)
(0.172622 0.156175 0)
(0.170374 0.158624 0)
(0.168091 0.16104 0)
(0.165775 0.163424 0)
(0.163424 0.165775 0)
(0.16104 0.168091 0)
(0.158624 0.170374 0)
(0.156175 0.172622 0)
(0.153694 0.174834 0)
(0.151182 0.177011 0)
(0.148639 0.179152 0)
(0.146065 0.181256 0)
(0.143462 0.183323 0)
(0.14083 0.185353 0)
(0.138169 0.187345 0)
(0.135479 0.189299 0)
(0.132762 0.191214 0)
(0.130018 0.193091 0)
(0.127248 0.194927 0)
(0.124452 0.196725 0)
(0.12163 0.198482 0)
(0.118783 0.200198 0)
(0.115912 0.201874 0)
(0.113018 0.203509 0)
(0.1101 0.205102 0)
(0.10716 0.206653 0)
(0.104198 0.208162 0)
(0.101215 0.209629 0)
(0.0982117 0.211053 0)
(0.095188 0.212434 0)
(0.0921448 0.213771 0)
(0.0890829 0.215065 0)
(0.0860028 0.216315 0)
(0.0829052 0.217521 0)
(0.0797906 0.218683 0)
(0.0766598 0.2198 0)
(0.0735133 0.220872 0)
(0.0703519 0.221899 0)
(0.0671761 0.222881 0)
(0.0639866 0.223818 0)
(0.0607841 0.224709 0)
(0.0575692 0.225554 0)
(0.0543425 0.226353 0)
(0.0511048 0.227106 0)
(0.0478566 0.227812 0)
(0.0445987 0.228473 0)
(0.0413317 0.229086 0)
(0.0380562 0.229653 0)
(0.034773 0.230173 0)
(0.0314827 0.230646 0)
(0.028186 0.231072 0)
(0.0248836 0.231451 0)
(0.021576 0.231783 0)
(0.0182641 0.232067 0)
(0.0149484 0.232304 0)
(0.0116297 0.232494 0)
(0.00830863 0.232636 0)
(0.00498586 0.232731 0)
(0.00166207 0.232779 0)
(0.232405 0.0016594 0)
(0.232358 0.00497785 0)
(0.232263 0.00829529 0)
(0.232121 0.011611 0)
(0.231931 0.0149244 0)
(0.231694 0.0182347 0)
(0.23141 0.0215414 0)
(0.231079 0.0248436 0)
(0.230701 0.0281407 0)
(0.230276 0.0314322 0)
(0.229803 0.0347172 0)
(0.229284 0.0379951 0)
(0.228718 0.0412653 0)
(0.228106 0.0445271 0)
(0.227446 0.0477797 0)
(0.226741 0.0510227 0)
(0.225989 0.0542552 0)
(0.225192 0.0574767 0)
(0.224348 0.0606865 0)
(0.223458 0.0638839 0)
(0.222523 0.0670682 0)
(0.221543 0.0702389 0)
(0.220517 0.0733953 0)
(0.219447 0.0765366 0)
(0.218332 0.0796624 0)
(0.217172 0.082772 0)
(0.215968 0.0858646 0)
(0.21472 0.0889398 0)
(0.213428 0.0919968 0)
(0.212092 0.0950351 0)
(0.210714 0.0980539 0)
(0.209292 0.101053 0)
(0.207828 0.104031 0)
(0.206321 0.106988 0)
(0.204772 0.109923 0)
(0.203182 0.112836 0)
(0.20155 0.115726 0)
(0.199877 0.118592 0)
(0.198163 0.121434 0)
(0.196409 0.124252 0)
(0.194614 0.127044 0)
(0.19278 0.12981 0)
(0.190907 0.132549 0)
(0.188995 0.135262 0)
(0.187044 0.137947 0)
(0.185055 0.140603 0)
(0.183029 0.143232 0)
(0.180965 0.145831 0)
(0.178864 0.1484 0)
(0.176727 0.150939 0)
(0.174553 0.153447 0)
(0.172344 0.155924 0)
(0.1701 0.158369 0)
(0.167821 0.160782 0)
(0.165508 0.163162 0)
(0.163162 0.165508 0)
(0.160782 0.167821 0)
(0.158369 0.1701 0)
(0.155924 0.172344 0)
(0.153447 0.174553 0)
(0.150939 0.176727 0)
(0.1484 0.178864 0)
(0.145831 0.180965 0)
(0.143232 0.183029 0)
(0.140603 0.185055 0)
(0.137947 0.187044 0)
(0.135262 0.188995 0)
(0.132549 0.190907 0)
(0.12981 0.19278 0)
(0.127044 0.194614 0)
(0.124252 0.196409 0)
(0.121434 0.198163 0)
(0.118592 0.199877 0)
(0.115726 0.20155 0)
(0.112836 0.203182 0)
(0.109923 0.204772 0)
(0.106988 0.206321 0)
(0.104031 0.207828 0)
(0.101053 0.209292 0)
(0.0980539 0.210714 0)
(0.0950351 0.212092 0)
(0.0919968 0.213428 0)
(0.0889398 0.21472 0)
(0.0858646 0.215968 0)
(0.082772 0.217172 0)
(0.0796624 0.218332 0)
(0.0765366 0.219447 0)
(0.0733953 0.220517 0)
(0.0702389 0.221543 0)
(0.0670682 0.222523 0)
(0.0638839 0.223458 0)
(0.0606865 0.224348 0)
(0.0574767 0.225192 0)
(0.0542552 0.225989 0)
(0.0510227 0.226741 0)
(0.0477797 0.227446 0)
(0.0445271 0.228106 0)
(0.0412653 0.228718 0)
(0.0379951 0.229284 0)
(0.0347172 0.229803 0)
(0.0314322 0.230276 0)
(0.0281407 0.230701 0)
(0.0248436 0.231079 0)
(0.0215414 0.23141 0)
(0.0182347 0.231694 0)
(0.0149244 0.231931 0)
(0.011611 0.232121 0)
(0.00829529 0.232263 0)
(0.00497785 0.232358 0)
(0.0016594 0.232405 0)
(0.232031 0.00165673 0)
(0.231984 0.00496984 0)
(0.231889 0.00828195 0)
(0.231747 0.0115924 0)
(0.231558 0.0149004 0)
(0.231322 0.0182054 0)
(0.231038 0.0215067 0)
(0.230708 0.0248036 0)
(0.23033 0.0280955 0)
(0.229905 0.0313816 0)
(0.229434 0.0346613 0)
(0.228915 0.037934 0)
(0.22835 0.0411989 0)
(0.227739 0.0444555 0)
(0.227081 0.0477029 0)
(0.226376 0.0509406 0)
(0.225626 0.054168 0)
(0.224829 0.0573843 0)
(0.223987 0.0605889 0)
(0.223099 0.0637811 0)
(0.222166 0.0669604 0)
(0.221187 0.0701259 0)
(0.220163 0.0732772 0)
(0.219094 0.0764136 0)
(0.217981 0.0795343 0)
(0.216823 0.0826389 0)
(0.21562 0.0857266 0)
(0.214374 0.0887968 0)
(0.213085 0.0918489 0)
(0.211751 0.0948822 0)
(0.210375 0.0978963 0)
(0.208955 0.10089 0)
(0.207493 0.103864 0)
(0.205989 0.106816 0)
(0.204443 0.109747 0)
(0.202855 0.112655 0)
(0.201226 0.11554 0)
(0.199555 0.118402 0)
(0.197844 0.121239 0)
(0.196093 0.124052 0)
(0.194301 0.126839 0)
(0.19247 0.129601 0)
(0.1906 0.132336 0)
(0.188691 0.135044 0)
(0.186743 0.137725 0)
(0.184758 0.140377 0)
(0.182734 0.143001 0)
(0.180674 0.145596 0)
(0.178576 0.148161 0)
(0.176442 0.150696 0)
(0.174273 0.1532 0)
(0.172067 0.155673 0)
(0.169827 0.158114 0)
(0.167552 0.160523 0)
(0.165242 0.162899 0)
(0.162899 0.165242 0)
(0.160523 0.167552 0)
(0.158114 0.169827 0)
(0.155673 0.172067 0)
(0.1532 0.174273 0)
(0.150696 0.176442 0)
(0.148161 0.178576 0)
(0.145596 0.180674 0)
(0.143001 0.182734 0)
(0.140377 0.184758 0)
(0.137725 0.186743 0)
(0.135044 0.188691 0)
(0.132336 0.1906 0)
(0.129601 0.19247 0)
(0.126839 0.194301 0)
(0.124052 0.196093 0)
(0.121239 0.197844 0)
(0.118402 0.199555 0)
(0.11554 0.201226 0)
(0.112655 0.202855 0)
(0.109747 0.204443 0)
(0.106816 0.205989 0)
(0.103864 0.207493 0)
(0.10089 0.208955 0)
(0.0978963 0.210375 0)
(0.0948822 0.211751 0)
(0.0918489 0.213085 0)
(0.0887968 0.214374 0)
(0.0857266 0.21562 0)
(0.0826389 0.216823 0)
(0.0795343 0.217981 0)
(0.0764136 0.219094 0)
(0.0732772 0.220163 0)
(0.0701259 0.221187 0)
(0.0669604 0.222166 0)
(0.0637811 0.223099 0)
(0.0605889 0.223987 0)
(0.0573843 0.224829 0)
(0.054168 0.225626 0)
(0.0509406 0.226376 0)
(0.0477029 0.227081 0)
(0.0444555 0.227739 0)
(0.0411989 0.22835 0)
(0.037934 0.228915 0)
(0.0346613 0.229434 0)
(0.0313816 0.229905 0)
(0.0280955 0.23033 0)
(0.0248036 0.230708 0)
(0.0215067 0.231038 0)
(0.0182054 0.231322 0)
(0.0149004 0.231558 0)
(0.0115924 0.231747 0)
(0.00828195 0.231889 0)
(0.00496984 0.231984 0)
(0.00165673 0.232031 0)
(0.231658 0.00165406 0)
(0.23161 0.00496184 0)
(0.231516 0.00826862 0)
(0.231374 0.0115737 0)
(0.231185 0.0148764 0)
(0.230949 0.0181761 0)
(0.230666 0.0214721 0)
(0.230336 0.0247637 0)
(0.229959 0.0280503 0)
(0.229535 0.0313311 0)
(0.229064 0.0346056 0)
(0.228547 0.0378729 0)
(0.227983 0.0411326 0)
(0.227372 0.0443839 0)
(0.226715 0.0476261 0)
(0.226012 0.0508587 0)
(0.225263 0.0540808 0)
(0.224468 0.0572919 0)
(0.223627 0.0604914 0)
(0.22274 0.0636785 0)
(0.221808 0.0668526 0)
(0.220831 0.0700131 0)
(0.219808 0.0731593 0)
(0.218741 0.0762906 0)
(0.21763 0.0794063 0)
(0.216474 0.0825058 0)
(0.215273 0.0855886 0)
(0.214029 0.0886538 0)
(0.212742 0.091701 0)
(0.21141 0.0947295 0)
(0.210036 0.0977387 0)
(0.208619 0.100728 0)
(0.207159 0.103697 0)
(0.205658 0.106644 0)
(0.204114 0.10957 0)
(0.202528 0.112473 0)
(0.200902 0.115354 0)
(0.199234 0.118211 0)
(0.197526 0.121044 0)
(0.195777 0.123852 0)
(0.193989 0.126635 0)
(0.192161 0.129392 0)
(0.190293 0.132123 0)
(0.188387 0.134827 0)
(0.186443 0.137503 0)
(0.18446 0.140151 0)
(0.18244 0.142771 0)
(0.180383 0.145362 0)
(0.178289 0.147923 0)
(0.176158 0.150453 0)
(0.173992 0.152954 0)
(0.17179 0.155423 0)
(0.169553 0.15786 0)
(0.167282 0.160265 0)
(0.164976 0.162637 0)
(0.162637 0.164976 0)
(0.160265 0.167282 0)
(0.15786 0.169553 0)
(0.155423 0.17179 0)
(0.152954 0.173992 0)
(0.150453 0.176158 0)
(0.147923 0.178289 0)
(0.145362 0.180383 0)
(0.142771 0.18244 0)
(0.140151 0.18446 0)
(0.137503 0.186443 0)
(0.134827 0.188387 0)
(0.132123 0.190293 0)
(0.129392 0.192161 0)
(0.126635 0.193989 0)
(0.123852 0.195777 0)
(0.121044 0.197526 0)
(0.118211 0.199234 0)
(0.115354 0.200902 0)
(0.112473 0.202528 0)
(0.10957 0.204114 0)
(0.106644 0.205658 0)
(0.103697 0.207159 0)
(0.100728 0.208619 0)
(0.0977387 0.210036 0)
(0.0947295 0.21141 0)
(0.091701 0.212742 0)
(0.0886538 0.214029 0)
(0.0855886 0.215273 0)
(0.0825058 0.216474 0)
(0.0794063 0.21763 0)
(0.0762906 0.218741 0)
(0.0731593 0.219808 0)
(0.0700131 0.220831 0)