/*--------------------------------*- C++ -*----------------------------------*\
| =========                 |                                                 |
| \\      /  F ield         | OpenFOAM: The Open Source CFD Toolbox           |
|  \\    /   O peration     | Version:  2312                                  |
|   \\  /    A nd           | Website:  www.openfoam.com                      |
|    \\/     M anipulation  |                                                 |
\*---------------------------------------------------------------------------*/
FoamFile
{
    version     2.0;
    format      ascii;
    arch        "LSB;label=32;scalar=64";
    class       volVectorField;
    location    "1";
    object      analyticalD;
}
// * * * * * * * * * * * * * * * * * * * * * * * * * * * * * * * * * * * * * //

dimensions      [0 1 0 0 0 0 0];

internalField   nonuniform List<vector> 
26526
(
(1.10862 1.50212 0)
(0.654358 1.64949 0)
(0.614298 1.69804 0)
(0.613642 1.70181 0)
(0.552587 1.70727 0)
(0.917081 1.96424 0)
(0.205219 1.12924 0)
(0.443761 1.6573 0)
(0.200577 0.818262 0)
(0.126829 1.26051 0)
(0.799912 2.13911 0)
(0.653902 1.72345 0)
(1.2295 1.77894 0)
(1.23976 1.77959 0)
(0.662969 1.94456 0)
(0.661201 1.94034 0)
(0.602122 1.08158 0)
(0.599809 1.07402 0)
(0.164639 1.24815 0)
(0.159847 1.2439 0)
(0.763005 1.43604 0)
(0.483845 1.63178 0)
(0.964492 1.87888 0)
(0.526131 1.74798 0)
(0.23218 1.2221 0)
(1.84933 1.60024 0)
(0.807842 2.16057 0)
(0.809342 1.79496 0)
(0.512081 1.65691 0)
(0.956753 1.24798 0)
(0.637045 1.8424 0)
(0.294707 1.36373 0)
(0.8979 1.60695 0)
(0.331737 1.38428 0)
(1.33731 1.66169 0)
(0.73677 2.01451 0)
(0.401583 1.02168 0)
(0.2051 1.33223 0)
(0.197302 1.02101 0)
(0.85546 2.04684 0)
(0.330986 1.5196 0)
(1.47928 1.82353 0)
(0.691589 2.0158 0)
(0.0287502 1.10384 0)
(0.191784 1.01414 0)
(0.328086 1.51687 0)
(0.500688 1.46199 0)
(0.587431 1.3764 0)
(1.02393 1.31571 0)
(1.65183 1.42411 0)
(0.0767819 0.878021 0)
(0.879689 2.13978 0)
(0.271017 1.45522 0)
(0.669443 1.95565 0)
(1.26336 1.77582 0)
(0.586069 1.05757 0)
(0.152849 1.23974 0)
(1.19912 1.84142 0)
(0.62416 1.90503 0)
(0.720289 1.0958 0)
(0.131144 1.19017 0)
(0.531167 1.34226 0)
(0.53129 1.33609 0)
(0.775105 1.63475 0)
(0.791794 1.58816 0)
(0.715183 1.19764 0)
(1.17917 1.90248 0)
(1.17312 1.8974 0)
(0.590324 1.87094 0)
(0.590796 1.87005 0)
(0.850811 1.10048 0)
(0.841256 1.10688 0)
(0.0914879 1.12656 0)
(0.0985955 1.13483 0)
(1.01715 1.30945 0)
(1.6407 1.57998 0)
(1.66103 1.57889 0)
(0.801976 2.11918 0)
(0.803732 2.12423 0)
(0.646837 1.33193 0)
(0.646798 1.35693 0)
(0.672815 1.24765 0)
(0.19362 1.07319 0)
(0.889307 2.00991 0)
(0.390942 1.59491 0)
(0.681225 1.4842 0)
(0.86973 1.71616 0)
(1.31228 1.56754 0)
(0.389533 1.34224 0)
(0.750246 1.94993 0)
(0.395046 1.14203 0)
(0.313564 1.45379 0)
(0.693477 1.3766 0)
(0.792776 1.89117 0)
(0.365651 1.23004 0)
(0.416066 1.57242 0)
(0.677044 1.48771 0)
(0.934622 2.04216 0)
(0.400794 1.61935 0)
(1.61845 1.37218 0)
(1.6418 1.36861 0)
(0.0501709 0.889616 0)
(0.041266 0.880592 0)
(0.309351 1.50667 0)
(0.909626 2.13507 0)
(0.911593 2.14078 0)
(0.306653 1.50345 0)
(0.536967 1.43786 0)
(0.543624 1.4378 0)
(1.07406 1.99567 0)
(0.506869 1.76482 0)
(1.07082 2.00017 0)
(0.503116 1.76013 0)
(1.10888 1.18067 0)
(1.12226 1.18312 0)
(0.067168 1.04913 0)
(0.0649546 1.04443 0)
(1.10046 1.52935 0)
(0.573201 1.6183 0)
(1.20702 1.84374 0)
(0.625071 1.90786 0)
(0.722254 1.08908 0)
(0.125656 1.18473 0)
(0.416894 1.54694 0)
(1.11169 1.97954 0)
(0.530914 1.79739 0)
(1.05662 1.14538 0)
(0.0593522 1.05655 0)
(0.583519 1.65535 0)
(1.75516 1.47051 0)
(0.0806893 0.834895 0)
(0.218158 1.38581 0)
(0.85704 2.1589 0)
(0.388964 1.44867 0)
(0.701445 1.67454 0)
(0.386921 1.33635 0)
(0.878874 1.43565 0)
(1.57318 1.53698 0)
(0.192327 0.907174 0)
(0.818265 2.10855 0)
(0.217718 1.37747 0)
(0.362058 1.39471 0)
(1.27512 1.51963 0)
(1.26886 1.52692 0)
(0.0994987 0.782851 0)
(1.86057 1.53442 0)
(0.148652 1.29401 0)
(0.832689 2.17341 0)
(1.25267 1.66864 0)
(0.722007 1.98097 0)
(0.439227 1.07332 0)
(0.229859 1.35212 0)
(0.576667 1.62442 0)
(0.8777 1.53488 0)
(0.88469 1.53079 0)
(1.00654 1.39727 0)
(0.717683 1.44812 0)
(1.09178 1.7784 0)
(0.981747 2.03114 0)
(0.43898 1.67243 0)
(0.772905 1.94661 0)
(0.364178 1.15386 0)
(0.343562 1.49535 0)
(0.584597 1.4132 0)
(0.576247 1.41217 0)
(1.1082 1.80917 0)
(1.21028 1.81142 0)
(0.641212 1.92097 0)
(0.662582 1.0919 0)
(0.149019 1.21962 0)
(1.16527 1.33202 0)
(0.942433 2.00309 0)
(0.153311 1.07513 0)
(0.43275 1.65541 0)
(1.01811 1.93526 0)
(0.514796 1.7587 0)
(0.971286 1.2503 0)
(0.155233 1.14128 0)
(0.855085 1.77094 0)
(0.555206 1.71361 0)
(0.781757 1.6357 0)
(0.580405 1.64938 0)
(0.79128 1.85409 0)
(0.448835 1.5986 0)
(1.04192 1.94007 0)
(0.522318 1.77293 0)
(0.975046 1.22394 0)
(0.136303 1.12848 0)
(0.641081 1.74062 0)
(0.671296 1.95956 0)
(1.27306 1.77578 0)
(0.582832 1.05067 0)
(0.148974 1.23642 0)
(0.0965167 1.1372 0)
(0.424047 1.42917 0)
(0.767635 1.94396 0)
(0.37249 1.15647 0)
(0.340686 1.48972 0)
(1.08393 2.00796 0)
(0.50526 1.76445 0)
(1.14233 1.1671 0)
(0.0491652 1.02987 0)
(0.580575 1.7692 0)
(0.315871 1.33954 0)
(0.859264 1.18125 0)
(1.46407 1.36721 0)
(0.0904433 0.950221 0)
(0.913844 2.09564 0)
(0.345048 1.55096 0)
(0.603043 1.48507 0)
(0.998028 1.58956 0)
(0.868128 1.92037 0)
(0.862616 1.92166 0)
(0.445492 1.6375 0)
(0.440859 1.6308 0)
(0.716178 1.93537 0)
(0.456597 1.14933 0)
(0.28547 1.40648 0)
(1.00116 1.58436 0)
(0.945558 2.10592 0)
(0.364746 1.57942 0)
(1.49222 1.3193 0)
(0.0502363 0.932592 0)
(0.310311 1.45187 0)
(1.493 1.82126 0)
(0.694877 2.02054 0)
(0.0255246 1.1011 0)
(1.06547 1.75082 0)
(0.869401 1.17737 0)
(1.88181 1.44906 0)
(0.0286437 0.789254 0)
(0.870227 2.18682 0)
(0.204959 1.36992 0)
(0.63068 1.63643 0)
(1.27869 1.84696 0)
(0.641066 1.93796 0)
(0.707363 1.03234 0)
(0.0907338 1.1546 0)
(0.884505 1.44216 0)
(1.03731 1.65166 0)
(1.02018 1.92975 0)
(0.518901 1.76307 0)
(0.158304 1.14728 0)
(1.05082 1.50179 0)
(1.85716 1.45285 0)
(0.0374343 0.797492 0)
(0.868249 2.18198 0)
(0.20792 1.37368 0)
(0.75253 1.95527 0)
(0.389552 1.13471 0)
(1.73357 1.47393 0)
(0.0898086 0.843216 0)
(0.855118 2.15418 0)
(0.220794 1.38888 0)
(1.16493 1.86419 0)
(0.604094 1.87958 0)
(0.774605 1.12014 0)
(0.129698 1.17649 0)
(0.809183 1.80183 0)
(0.506219 1.65275 0)
(0.559874 1.71837 0)
(0.595085 1.74159 0)
(0.753382 1.94838 0)
(0.390839 1.14547 0)
(0.319203 1.46107 0)
(0.657599 1.49521 0)
(0.651079 1.48787 0)
(1.66465 1.32273 0)
(0.00586662 0.869471 0)
(0.939302 2.14764 0)
(0.328916 1.53342 0)
(1.11554 1.80511 0)
(0.859747 1.76565 0)
(1.3386 1.69676 0)
(0.71956 2.00666 0)
(0.445865 1.01765 0)
(0.180767 1.29669 0)
(0.589628 1.70581 0)
(1.02292 1.70708 0)
(0.23106 1.05276 0)
(0.841928 2.02423 0)
(0.33782 1.52193 0)
(0.635808 1.65251 0)
(0.848119 1.76745 0)
(1.27362 1.92401 0)
(0.609567 1.90507 0)
(0.0252073 1.0633 0)
(0.879193 1.01303 0)
(1.53101 1.33595 0)
(0.0503749 0.919871 0)
(0.93354 2.11513 0)
(0.347845 1.5572 0)
(0.386414 1.49835 0)
(1.0353 1.71841 0)
(1.13063 1.73403 0)
(0.679228 1.63317 0)
(0.917293 1.85971 0)
(0.517711 1.71977 0)
(0.276593 1.2538 0)
(0.970267 2.0656 0)
(0.964068 2.06709 0)
(0.40486 1.63024 0)
(0.410092 1.63739 0)
(0.697656 1.79127 0)
(1.14548 1.66476 0)
(0.648836 1.80662 0)
(1.40162 1.80329 0)
(0.683918 1.99833 0)
(0.589549 0.955542 0)
(0.076283 1.15847 0)
(0.233028 1.23733 0)
(0.352054 1.38073 0)
(0.345212 1.37551 0)
(0.506344 1.52964 0)
(0.642882 1.87725 0)
(0.646955 1.88179 0)
(0.613185 1.19395 0)
(0.604045 1.18929 0)
(0.247293 1.3226 0)
(0.247573 1.3257 0)
(0.699969 1.79715 0)
(0.872466 1.98182 0)
(0.400129 1.59759 0)
(0.231191 1.11176 0)
(0.470308 0.802481 0)
(0.00407042 1.08702 0)
(0.734368 2.07583 0)
(1.657 1.77963 0)
(1.98306 1.4634 0)
(0.00687603 0.749661 0)
(0.865666 2.20387 0)
(0.174016 1.32928 0)
(0.752626 1.84887 0)
(0.716963 1.42857 0)
(0.803902 1.80287 0)
(0.502455 1.64677 0)
(0.490467 1.37017 0)
(0.586483 1.74838 0)
(0.58082 1.74167 0)
(1.49299 1.73306 0)
(0.725005 2.04745 0)
(0.446485 0.916853 0)
(0.100154 1.2043 0)
(0.44678 1.54581 0)
(1.21558 1.86198 0)
(0.618915 1.9049 0)
(0.755246 1.07865 0)
(0.107024 1.16045 0)
(0.877742 1.98278 0)
(0.403325 1.60288 0)
(0.225511 1.11014 0)
(0.86417 1.16756 0)
(0.696855 1.20424 0)
(0.991967 1.91145 0)
(0.988735 1.91799 0)
(0.51759 1.75207 0)
(0.512147 1.74623 0)
(0.190527 1.17668 0)
(0.187755 1.16984 0)
(0.4271 1.3698 0)
(2.02523 1.56201 0)
(0.947155 1.41636 0)
(1.13641 1.7282 0)
(0.769007 1.62981 0)
(0.166683 0.684035 0)
(0.0168752 1.11879 0)
(0.805752 2.17564 0)
(1.0609 1.50437 0)
(1.66681 1.32992 0)
(0.00974828 0.869283 0)
(0.934799 2.1479 0)
(0.324338 1.52736 0)
(0.747664 1.38663 0)
(1.35367 1.29615 0)
(0.0734371 0.983182 0)
(0.07043 0.98459 0)
(1.34588 1.28829 0)
(0.443908 1.43233 0)
(0.438889 1.42572 0)
(0.377041 1.30034 0)
(0.370406 1.29677 0)
(0.866074 1.53157 0)
(0.817212 1.68846 0)
(0.810518 1.68951 0)
(0.951707 1.42285 0)
(0.212345 0.824721 0)
(0.126808 1.2597 0)
(0.796436 2.13435 0)
(2.02653 1.55608 0)
(0.820714 1.27179 0)
(1.13521 1.76474 0)
(0.740705 1.45823 0)
(0.738563 1.50656 0)
(0.74413 1.50144 0)
(0.356234 1.38868 0)
(0.906388 1.36952 0)
(0.895317 1.3687 0)
(0.90109 1.53866 0)
(0.673547 1.46221 0)
(0.680301 1.46239 0)
(1.32683 1.60024 0)
(0.768217 2.02375 0)
(0.33466 1.03 0)
(0.247773 1.39403 0)
(1.17391 1.53422 0)
(1.17998 1.52704 0)
(0.556493 1.69671 0)
(0.495979 1.4434 0)
(1.09159 1.69714 0)
(0.857638 1.87156 0)
(0.853679 1.86413 0)
(0.480933 1.65937 0)
(0.477368 1.65867 0)
(0.986485 2.09654 0)
(0.402053 1.62948 0)
(0.774019 1.72268 0)
(1.10656 1.89916 0)
(0.568597 1.83326 0)
(0.131993 1.15618 0)
(1.6695 1.42383 0)
(0.0714505 0.871061 0)
(0.880004 2.14392 0)
(0.267345 1.45067 0)
(0.697187 1.8538 0)
(0.363527 1.46718 0)
(1.34858 1.38468 0)
(0.9024 2.06041 0)
(0.136804 1.00221 0)
(0.362449 1.5685 0)
(1.16168 1.73144 0)
(1.15785 1.72579 0)
(0.88801 1.74849 0)
(0.887999 1.75464 0)
(1.15351 1.84329 0)
(0.611257 1.88195 0)
(0.738048 1.13271 0)
(0.151394 1.204 0)
(0.817372 1.88715 0)
(0.438313 1.60509 0)
(0.342219 1.23443 0)
(0.713976 1.43357 0)
(0.55422 1.67672 0)
(0.969175 1.46049 0)
(0.969632 1.45189 0)
(1.35186 1.66216 0)
(0.738259 2.01953 0)
(0.397337 1.01297 0)
(0.199844 1.32701 0)
(1.01284 1.3917 0)
(1.24459 1.91326 0)
(1.23535 1.91594 0)
(0.605219 1.8972 0)
(0.601438 1.89191 0)
(0.859349 1.04125 0)
(0.867861 1.0483 0)
(0.0487598 1.08814 0)
(0.0500904 1.08749 0)
(0.489863 1.44089 0)
(0.952885 1.54288 0)
(0.678003 1.69024 0)
(0.72084 1.61446 0)
(1.21578 1.85532 0)
(0.621977 1.90755 0)
(0.741983 1.07985 0)
(0.112356 1.16833 0)
(0.772923 1.58021 0)
(1.26423 1.92405 0)
(0.606805 1.90108 0)
(0.029715 1.0671 0)
(0.881257 1.02098 0)
(0.684133 1.93633 0)
(0.524232 1.12175 0)
(0.228813 1.3299 0)
(1.03111 1.51864 0)
(0.762157 2.05372 0)
(0.333557 0.967678 0)
(0.19313 1.32954 0)
(0.775801 1.79305 0)
(0.711337 1.34233 0)
(0.766814 1.62298 0)
(1.44464 1.83962 0)
(0.67976 1.99975 0)
(0.0278377 1.09808 0)
(0.866922 1.58632 0)
(0.704151 1.89494 0)
(0.321417 1.43386 0)
(1.37989 1.86738 0)
(0.656777 1.96844 0)
(0.722301 0.949606 0)
(0.0293367 1.09026 0)
(0.670645 1.66336 0)
(0.677224 1.67131 0)
(0.780413 1.79681 0)
(0.545031 1.51554 0)
(1.44902 1.42745 0)
(0.139022 0.962732 0)
(0.875402 2.08673 0)
(0.315348 1.50781 0)
(0.560341 1.69801 0)
(1.19535 1.55805 0)
(1.25209 1.6185 0)
(1.31554 1.48037 0)
(1.0418 1.51569 0)
(0.794952 2.15716 0)
(0.714458 1.85008 0)
(1.62722 1.45748 0)
(0.10896 0.887528 0)
(0.861186 2.13121 0)
(0.255689 1.43333 0)
(0.610554 1.68519 0)
(1.44431 1.30273 0)
(0.0526286 0.94843 0)
(0.874564 1.59058 0)
(0.581616 1.27863 0)
(0.26194 0.99082 0)
(0.80035 2.05655 0)
(0.254995 1.41527 0)
(1.10606 1.97677 0)
(0.529931 1.79542 0)
(1.05026 1.15178 0)
(0.0652761 1.06208 0)
(0.400835 1.34607 0)
(0.993594 2.07236 0)
(0.421471 1.65415 0)
(0.997696 2.07505 0)
(0.422543 1.65589 0)
(0.609477 1.49297 0)
(0.609064 1.49851 0)
(0.769757 1.92833 0)
(0.3762 1.17857 0)
(0.359083 1.50837 0)
(0.911247 1.89909 0)
(0.486279 1.69241 0)
(0.255172 1.20857 0)
(0.620632 1.78308 0)
(0.957128 1.52032 0)
(0.963373 1.51548 0)
(0.423373 1.32506 0)
(0.292722 1.02962 0)
(0.272423 1.43107 0)
(1.40797 1.31108 0)
(0.0681452 0.964294 0)
(0.583177 1.28566 0)
(0.797257 1.91963 0)
(0.347265 1.19355 0)
(0.393328 1.55498 0)
(1.05085 1.98587 0)
(0.501335 1.75446 0)
(1.05133 1.99309 0)
(0.497717 1.75071 0)
(1.08712 1.20756 0)
(1.10665 1.20571 0)
(0.0910231 1.06917 0)
(0.0841002 1.05985 0)
(0.475123 1.52008 0)
(0.35878 1.31389 0)
(0.974713 1.66145 0)
(0.981209 1.66603 0)
(1.04645 1.54945 0)
(1.14166 1.45589 0)
(0.876387 1.72009 0)
(0.638721 1.8473 0)
(0.289808 1.3604 0)
(0.804065 1.97182 0)
(0.313219 1.12404 0)
(0.349884 1.51758 0)
(1.1673 1.43407 0)
(0.368522 1.44554 0)
(0.577696 1.51014 0)
(0.576669 1.76723 0)
(0.311785 1.33282 0)
(0.576349 1.4424 0)
(0.668682 1.48691 0)
(0.733056 1.46143 0)
(0.500253 1.52502 0)
(0.359381 1.57252 0)
(0.943088 2.11058 0)
(1.51113 1.32216 0)
(0.0468584 0.925715 0)
(0.99393 1.45156 0)
(0.982 1.44743 0)
(0.0992971 1.14279 0)
(1.79384 1.4442 0)
(0.0497552 0.822151 0)
(0.479488 1.62549 0)
(0.129166 0.68509 0)
(0.0341495 1.14253 0)
(2.06475 1.5937 0)
(0.813801 2.18551 0)
(1.52434 1.4417 0)
(0.127546 0.93071 0)
(0.868042 2.10633 0)
(0.289256 1.47537 0)
(1.10926 1.89317 0)
(0.572575 1.83747 0)
(0.850451 1.16591 0)
(0.135324 1.16225 0)
(1.44822 1.35301 0)
(0.0851073 0.954857 0)
(0.923409 2.09213 0)
(0.356119 1.56582 0)
(0.79807 1.82063 0)
(0.801192 1.82573 0)
(0.699587 1.46574 0)
(0.950423 2.10502 0)
(0.369334 1.58561 0)
(1.48838 1.31257 0)
(0.0469272 0.933057 0)
(0.256579 0.709083 0)
(0.0037435 1.09857 0)
(0.00886883 0.683384 0)
(2.12097 1.52687 0)
(1.90333 1.69544 0)
(0.78629 2.14847 0)
(0.0949413 1.22475 0)
(0.847152 2.21859 0)
(0.682306 1.937 0)
(0.529854 1.11824 0)
(0.22389 1.32369 0)
(0.616249 1.69175 0)
(0.137068 0.794358 0)
(0.127299 0.786653 0)
(1.81876 1.56174 0)
(1.8388 1.55813 0)
(0.138196 1.27878 0)
(0.136005 1.27635 0)
(0.819928 2.16127 0)
(0.822394 2.16578 0)
(0.163984 0.771152 0)
(0.100702 1.22866 0)
(1.53644 1.43634 0)
(0.12008 0.92534 0)
(0.87136 2.11002 0)
(0.289597 1.47649 0)
(1.10019 1.91464 0)
(0.558458 1.82248 0)
(0.898264 1.16976 0)
(0.12292 1.14011 0)
(0.509655 0.901591 0)
(1.03159 1.77929 0)
(1.01366 1.70919 0)
(0.701122 1.34022 0)
(1.18164 1.43306 0)
(0.741787 1.5454 0)
(0.962186 2.04716 0)
(0.416471 1.64319 0)
(0.690143 1.85786 0)
(0.349922 1.45088 0)
(0.711378 1.85794 0)
(0.478003 1.26257 0)
(0.374482 1.48631 0)
(0.59093 1.70295 0)
(0.509936 1.45073 0)
(0.50265 1.45098 0)
(0.710691 1.87876 0)
(0.349435 1.46375 0)
(0.377408 1.39816 0)
(0.577063 1.86217 0)
(1.22579 1.97113 0)
(0.00393245 1.02268 0)
(1.01369 1.03772 0)
(0.552065 1.54509 0)
(1.72321 1.71925 0)
(0.759384 2.10835 0)
(0.600095 1.7469 0)
(1.27021 1.24262 0)
(0.0618041 1.00347 0)
(1.01046 2.04568 0)
(0.447429 1.68723 0)
(0.620689 1.69297 0)
(0.589351 1.80597 0)
(0.241154 0.70615 0)
(0.00704745 1.10347 0)
(0.0166413 0.682905 0)
(2.11554 1.53439 0)
(1.91712 1.68752 0)
(0.789492 2.15294 0)
(0.0897489 1.21784 0)
(0.84456 2.21667 0)
(0.685765 1.79052 0)
(0.91268 1.69515 0)
(0.903597 1.69198 0)
(0.418056 1.31811 0)
(0.500118 1.2646 0)
(0.853216 1.7421 0)
(0.599242 1.46905 0)
(0.591911 1.46713 0)
(0.557871 1.54853 0)
(0.641168 1.34992 0)
(1.61088 1.50758 0)
(0.154604 0.892267 0)
(0.834607 2.12189 0)
(0.227488 1.39339 0)
(0.75799 1.92106 0)
(0.394744 1.18638 0)
(0.354526 1.49743 0)
(1.60888 1.37972 0)
(0.0579617 0.893696 0)
(0.905152 2.13236 0)
(0.306928 1.50316 0)
(0.897687 1.97198 0)
(0.425658 1.63249 0)
(0.215667 1.1222 0)
(0.971328 1.93938 0)
(0.490681 1.721 0)
(0.183342 1.1487 0)
(0.602022 1.4373 0)
(1.17724 1.71509 0)
(0.98068 2.09873 0)
(0.396554 1.62216 0)
(1.02406 1.59674 0)
(1.30148 1.78073 0)
(0.675218 1.97052 0)
(0.580463 1.02872 0)
(0.133229 1.22073 0)
(1.08591 1.91922 0)
(0.550919 1.81174 0)
(0.127239 1.13945 0)
(0.800322 1.9665 0)
(0.320138 1.13049 0)
(0.351354 1.51718 0)
(0.417958 1.42297 0)
(0.896584 1.53273 0)
(1.03199 1.58493 0)
(0.87875 1.67858 0)
(0.84342 1.76959 0)
(0.791276 2.03119 0)
(0.657442 1.65673 0)
(0.75463 1.4348 0)
(1.14385 1.76108 0)
(0.564661 1.6388 0)
(0.691284 1.79696 0)
(0.696547 1.7994 0)
(0.695489 1.83482 0)
(0.927152 1.85205 0)
(0.527688 1.73226 0)
(0.274146 1.2601 0)
(1.20862 1.70913 0)
(0.697551 1.9588 0)
(0.506603 1.10122 0)
(0.217938 1.32614 0)
(0.206455 1.06582 0)
(0.871088 2.01585 0)
(0.371548 1.56828 0)
(1.18363 1.71953 0)
(0.398138 1.4678 0)
(0.642036 1.64064 0)
(1.50325 1.72756 0)
(0.728491 2.05187 0)
(0.435092 0.912198 0)
(0.101037 1.20671 0)
(0.507541 1.53428 0)
(0.809964 2.05222 0)
(1.79865 1.63485 0)
(0.792444 2.1441 0)
(0.923749 1.71919 0)
(1.17648 1.40393 0)
(0.643417 1.57661 0)
(0.828498 1.59108 0)
(0.384158 1.48379 0)
(0.769623 1.71668 0)
(0.805349 1.87871 0)
(0.437026 1.59726 0)
(0.348843 1.29076 0)
(0.490617 1.71588 0)
(0.884502 1.88939 0)
(0.47913 1.67378 0)
(0.283507 1.22602 0)
(0.903352 1.76192 0)
(1.20545 1.55346 0)
(0.428659 1.36622 0)
(1.41079 1.79759 0)
(0.687723 2.00319 0)
(0.576685 0.951027 0)
(0.0774917 1.16158 0)
(0.665439 1.54709 0)
(0.333193 1.26555 0)
(0.332634 1.25935 0)
(0.750257 1.51936 0)
(0.741069 1.51513 0)
(0.563086 1.83324 0)
(1.12589 1.9235 0)
(0.101383 1.12072 0)
(1.0941 1.7712 0)
(1.05164 1.37459 0)
(0.806377 2.04753 0)
(0.5887 1.33423 0)
(0.579115 1.32952 0)
(1.02958 1.72413 0)
(0.823214 1.89133 0)
(0.438871 1.60877 0)
(0.334854 1.2294 0)
(1.09907 1.8846 0)
(0.573652 1.83535 0)
(0.834409 1.17522 0)
(0.147591 1.17556 0)
(0.876022 1.67277 0)
(1.81374 1.44397 0)
(0.0439136 0.814769 0)
(0.373319 1.25686 0)
(0.595521 1.38039 0)
(0.377789 1.26326 0)
(0.817837 1.70594 0)
(0.982814 1.38832 0)
(0.6559 1.81778 0)
(0.830983 1.59718 0)
(2.11226 1.56251 0)
(0.449626 1.55159 0)
(1.26352 1.49412 0)
(0.780315 1.98211 0)
(0.783485 1.98834 0)
(0.336514 1.10311 0)
(0.329007 1.09483 0)
(0.313681 1.46965 0)
(0.310703 1.4681 0)
(1.15401 1.59506 0)
(1.16191 1.58838 0)
(0.953696 1.97708 0)
(0.456768 1.68298 0)
(0.166292 1.10621 0)
(0.670301 1.54433 0)
(0.483599 1.20729 0)
(1.28147 1.75831 0)
(0.681115 1.96831 0)
(0.552703 1.04738 0)
(0.158385 1.25215 0)
(0.697001 1.38353 0)
(0.612284 1.63749 0)
(0.613104 1.64286 0)
(0.583882 1.51026 0)
(0.707659 1.8585 0)
(0.483248 1.26094 0)
(0.369756 1.47976 0)
(0.64209 1.82775 0)
(0.325191 1.39476 0)
(0.505038 1.45935 0)
(0.68278 1.10303 0)
(1.24034 1.61556 0)
(1.20655 1.70365 0)
(0.500158 1.10295 0)
(1.02306 1.58853 0)
(0.659504 1.52559 0)
(1.12592 1.85854 0)
(0.595635 1.8614 0)
(0.775703 1.15421 0)
(0.153554 1.19626 0)
(1.23055 1.61848 0)
(0.116396 0.683119 0)
(0.038051 1.14798 0)
(2.05578 1.60144 0)
(0.816753 2.18922 0)
(1.20259 1.71362 0)
(0.560186 1.4428 0)
(1.40244 1.32877 0)
(1.42125 1.32903 0)
(0.0815386 0.969738 0)
(0.0764006 0.962129 0)
(0.966467 2.04422 0)
(0.421186 1.64938 0)
(0.770232 1.60526 0)
(0.749285 1.99223 0)
(0.381629 1.07328 0)
(0.259932 1.39825 0)
(1.03185 1.96726 0)
(0.502723 1.75132 0)
(1.04368 1.23088 0)
(0.11979 1.09828 0)
(0.630089 1.6307 0)
(0.662245 1.46768 0)
(0.680566 1.69611 0)
(1.2973 1.17993 0)
(0.0155806 0.973926 0)
(1.06079 2.05589 0)
(0.470086 1.71963 0)
(0.796211 2.1596 0)
(0.740375 1.4933 0)
(1.15414 1.54212 0)
(1.45708 1.81035 0)
(0.691668 2.01366 0)
(0.585589 0.91512 0)
(0.0489216 1.12866 0)
(1.87449 1.47559 0)
(0.0462021 0.791636 0)
(0.857795 2.18286 0)
(0.194398 1.3557 0)
(0.265634 0.865553 0)
(1.63272 1.62847 0)
(0.781019 2.10865 0)
(0.137244 1.26878 0)
(1.00773 2.05054 0)
(0.443038 1.6817 0)
(0.929163 1.83866 0)
(0.537937 1.74072 0)
(0.280912 1.27448 0)
(0.677767 1.30106 0)
(1.01634 1.78095 0)
(0.655848 1.71369 0)
(0.660481 1.71169 0)
(0.610031 1.43755 0)
(0.143251 0.670062 0)
(0.0135896 1.11505 0)
(2.14422 1.56826 0)
(0.811136 2.18352 0)
(1.40064 1.5522 0)
(1.72351 1.71437 0)
(0.76069 2.10959 0)
(1.15855 1.53471 0)
(0.673593 1.85697 0)
(0.329547 1.42094 0)
(0.462934 1.28479 0)
(0.4654 1.2796 0)
(1.1494 1.46064 0)
(0.67923 1.47685 0)
(0.509909 1.73432 0)
(0.719031 1.85677 0)
(0.467955 1.26612 0)
(0.383829 1.49923 0)
(0.363761 1.43156 0)
(0.841278 1.85137 0)
(0.483907 1.6549 0)
(0.640888 1.63484 0)
(1.3461 1.27342 0)
(0.0606786 0.981039 0)
(0.528773 1.62564 0)
(1.25744 1.68148 0)
(0.715487 1.97924 0)
(0.453333 1.07019 0)
(0.220094 1.33817 0)
(0.946242 1.66912 0)
(0.208486 0.781737 0)
(0.0887849 1.21098 0)
(0.880997 1.17909 0)
(0.697955 1.67837 0)
(0.739439 1.44951 0)
(1.10992 1.52473 0)
(0.607583 1.59915 0)
(0.682902 1.24785 0)
(0.972786 1.73128 0)
(0.664224 1.86438 0)
(0.559112 1.23363 0)
(0.305868 1.39289 0)
(0.492188 1.40096 0)
(0.427592 1.48715 0)
(1.09299 1.70349 0)
(0.615793 1.58553 0)
(0.616347 1.59184 0)
(0.499101 0.901621 0)
(1.38504 1.25314 0)
(0.037197 0.961019 0)
(1.03975 1.82284 0)
(0.25309 1.10525 0)
(1.53362 1.48369 0)
(0.158258 0.927362 0)
(0.844691 2.10454 0)
(0.262025 1.43742 0)
(0.0535437 0.97467 0)
(1.35875 1.26773 0)
(0.385605 1.44923 0)
(0.487337 1.3941 0)
(0.372085 1.26981 0)
(0.36442 1.26389 0)
(1.055 2.03482 0)
(0.477733 1.72864 0)
(1.22891 1.19241 0)
(0.0413628 1.00428 0)
(1.00129 1.90984 0)
(0.522599 1.75974 0)
(0.185703 1.17607 0)
(1.77959 1.61495 0)
(0.747122 1.40021 0)
(0.508216 1.73408 0)
(0.971114 1.87921 0)
(0.528627 1.75275 0)
(0.227436 1.21979 0)
(1.6579 1.66976 0)
(0.306359 0.843015 0)
(0.767658 2.10591 0)
(0.0983908 1.21652 0)
(0.644097 1.6329 0)
(1.41884 1.84741 0)
(0.67192 1.98882 0)
(0.669673 0.928882 0)
(0.0312058 1.09899 0)
(1.59301 1.5325 0)
(0.182031 0.898426 0)
(0.82143 2.11426 0)
(0.215572 1.37571 0)
(0.4065 1.35185 0)
(0.950155 1.57987 0)
(1.33623 1.75259 0)
(1.33652 1.74523 0)
(0.693113 1.99057 0)
(0.696282 1.99251 0)
(0.526328 1.01185 0)
(0.515608 1.01322 0)
(0.141802 1.23949 0)
(0.147201 1.24723 0)
(0.760413 2.05489 0)
(0.337052 0.963252 0)
(0.187475 1.32226 0)
(1.5349 1.54668 0)
(1.53526 1.54091 0)
(0.811484 2.09704 0)
(0.814419 2.09796 0)
(0.213407 0.924432 0)
(0.207913 0.92464 0)
(0.221412 1.37996 0)
(0.22508 1.38519 0)
(0.732848 1.59266 0)
(1.32593 1.49215 0)
(1.47079 1.37269 0)
(0.0923587 0.948104 0)
(0.910228 2.09714 0)
(0.340594 1.545 0)
(0.494573 1.7485 0)
(1.05794 2.00505 0)
(1.1388 1.19606 0)
(0.0686066 1.04239 0)
(0.685184 1.78573 0)
(1.37121 1.7378 0)
(0.705348 2.00742 0)
(0.492678 0.991183 0)
(0.139498 1.24268 0)
(0.744651 1.77277 0)
(1.00279 2.00952 0)
(0.464019 1.70429 0)
(1.16427 1.25777 0)
(0.101964 1.05302 0)
(0.700253 1.94703 0)
(0.48907 1.11778 0)
(0.242496 1.35352 0)
(0.645172 1.45312 0)
(1.00266 1.88876 0)
(0.535983 1.77133 0)
(0.200325 1.20009 0)
(1.02001 1.72474 0)
(0.664284 1.84268 0)
(0.669313 1.84427 0)
(0.463623 1.39218 0)
(0.720159 1.94067 0)
(0.448347 1.14289 0)
(0.284297 1.40763 0)
(1.36889 1.86746 0)
(0.654243 1.96462 0)
(0.725255 0.957794 0)
(0.0339542 1.09466 0)
(0.744163 2.00018 0)
(0.747291 1.99896 0)
(0.388865 1.05576 0)
(0.383132 1.0602 0)
(0.240724 1.37508 0)
(0.247651 1.3841 0)
(0.445813 1.5792 0)
(0.643055 1.83903 0)
(0.309763 1.38186 0)
(0.429864 1.42971 0)
(0.571622 1.55132 0)
(0.566389 1.54538 0)
(0.787125 1.63171 0)
(0.691543 1.85031 0)
(0.360765 1.46039 0)
(1.47077 1.72504 0)
(0.725075 2.043 0)
(0.441853 0.932159 0)
(0.114055 1.22113 0)
(1.1853 1.69111 0)
(1.44805 1.84454 0)
(0.678925 1.99902 0)
(0.0220119 1.09061 0)
(0.700781 1.96063 0)
(0.221453 1.33169 0)
(0.827235 2.05131 0)
(0.227857 1.00933 0)
(0.2959 1.471 0)
(0.490474 1.52392 0)
(0.485978 1.51762 0)
(1.69759 1.44968 0)
(0.0821355 0.859223 0)
(0.866586 2.14834 0)
(0.244791 1.42064 0)
(1.84759 1.40372 0)
(0.0066134 0.805255 0)
(0.891672 2.1832 0)
(0.243223 1.42054 0)
(1.33872 1.49415 0)
(0.640209 1.83904 0)
(0.305134 1.37561 0)
(0.37097 1.44467 0)
(0.566426 1.7044 0)
(0.477992 1.72368 0)
(1.02283 2.00361 0)
(1.1426 1.23554 0)
(0.0933908 1.05505 0)
(0.972556 1.89452 0)
(0.519513 1.7461 0)
(0.215576 1.20137 0)
(1.17219 1.64389 0)
(0.607811 1.605 0)
(1.4279 1.31115 0)
(0.0626504 0.956371 0)
(0.641017 1.58065 0)
(0.595116 1.32923 0)
(0.785198 1.85441 0)
(0.444088 1.59114 0)
(0.589751 1.48142 0)
(1.1009 1.89056 0)
(0.571141 1.8338 0)
(0.845991 1.17393 0)
(0.141928 1.16808 0)
(0.449677 1.59053 0)
(0.444422 1.58696 0)
(0.715129 1.30925 0)
(0.880669 1.32319 0)
(0.846545 1.69384 0)
(1.35892 1.74235 0)
(0.701401 2.00183 0)
(0.5035 0.99832 0)
(0.140612 1.24212 0)
(0.673794 1.92537 0)
(0.676071 1.92528 0)
(0.550577 1.13321 0)
(0.544418 1.13584 0)
(0.226431 1.32126 0)
(0.231312 1.32768 0)
(1.12595 1.40306 0)
(1.62908 1.62344 0)
(0.261167 0.868411 0)
(0.782756 2.10872 0)
(0.142055 1.27524 0)
(0.493561 1.72096 0)
(1.32013 1.36035 0)
(1.31497 1.36834 0)
(0.91383 2.05112 0)
(0.919497 2.05344 0)
(0.379301 1.59035 0)
(0.381745 1.59447 0)
(0.134886 1.01488 0)
(0.12767 1.01095 0)
(0.750185 1.89742 0)
(0.413855 1.21752 0)
(0.371597 1.50839 0)
(1.40505 1.76474 0)
(0.699427 2.01133 0)
(0.523238 0.963584 0)
(0.106286 1.20104 0)
(0.475774 1.27347 0)
(0.434657 1.36758 0)
(0.669942 1.9214 0)
(0.559728 1.13692 0)
(0.225321 1.31777 0)
(0.510569 1.29802 0)
(0.0380535 0.66015 0)
(0.0528723 1.16881 0)
(2.04284 1.64031 0)
(0.835319 2.21346 0)
(0.579202 1.80448 0)
(1.22396 1.85093 0)
(0.626048 1.91293 0)
(0.730987 1.07419 0)
(0.112111 1.1704 0)
(0.889679 1.95791 0)
(0.888314 1.96309 0)
(0.430829 1.63407 0)
(0.426004 1.62898 0)
(0.232953 1.1411 0)
(0.230414 1.13468 0)
(0.269406 0.99731 0)
(0.797576 2.05198 0)
(0.256487 1.41591 0)
(0.646681 1.6463 0)
(0.515586 1.26371 0)
(0.568554 1.265 0)
(0.575185 1.26341 0)
(0.966378 1.89451 0)
(0.516205 1.74081 0)
(0.219747 1.20292 0)
(0.45118 1.69109 0)
(1.00753 2.03619 0)
(0.581164 1.86764 0)
(1.23163 1.96545 0)
(0.00648751 1.02765 0)
(0.996697 1.03454 0)
(0.785529 1.41033 0)
(0.581139 1.44056 0)
(0.684878 1.72427 0)
(1.32918 1.70274 0)
(0.715353 2.00175 0)
(0.456988 1.02288 0)
(0.179968 1.29376 0)
(0.912472 1.14395 0)
(0.654465 1.52051 0)
(0.687907 1.85196 0)
(0.354151 1.45254 0)
(0.632408 1.83605 0)
(0.29676 1.36217 0)
(0.656777 1.82266 0)
(0.833304 1.44522 0)
(0.510805 1.25599 0)
(1.1525 1.32946 0)
(1.13883 1.40074 0)
(0.784763 1.41644 0)
(0.842955 1.77559 0)
(0.546312 1.70097 0)
(0.883163 1.84782 0)
(0.50976 1.6965 0)
(0.308988 1.27442 0)
(0.205848 0.786824 0)
(0.094756 1.21884 0)
(0.713392 1.72971 0)
(1.39022 1.826 0)
(0.673381 1.98694 0)
(0.634925 0.956476 0)
(0.0615916 1.13624 0)
(0.22079 1.05801 0)
(0.853278 2.0212 0)
(0.351346 1.54053 0)
(0.906671 1.89483 0)
(0.486909 1.69065 0)
(0.261906 1.21486 0)
(1.0884 1.76686 0)
(0.808698 1.90598 0)
(0.415217 1.58061 0)
(0.34189 1.21152 0)
(0.689623 1.72555 0)
(1.08541 2.01451 0)
(0.502752 1.76169 0)
(1.16156 1.16378 0)
(0.0418153 1.02082 0)
(0.53931 1.51368 0)
(0.418593 1.29344 0)
(2.02637 1.60833 0)
(2.02098 1.6159 0)
(1.46105 1.6096 0)
(0.775103 2.0655 0)
(0.301376 0.956608 0)
(0.200582 1.34321 0)
(0.698233 1.90825 0)
(0.70242 1.91123 0)
(0.493806 1.18431 0)
(0.485092 1.1811 0)
(0.296093 1.40584 0)
(0.297874 1.41036 0)
(1.27677 1.84162 0)
(0.642858 1.93911 0)
(0.697528 1.03511 0)
(0.095979 1.16151 0)
(0.737321 1.87663 0)
(0.43757 1.24324 0)
(0.380839 1.50861 0)
(0.459819 1.48816 0)
(0.0960224 0.791166 0)
(1.84509 1.52448 0)
(0.159672 1.30859 0)
(0.836034 2.17171 0)
(0.710155 1.66727 0)
(1.03767 1.96906 0)
(0.504388 1.75449 0)
(1.04644 1.22447 0)
(0.114463 1.0943 0)
(0.641335 1.45679 0)
(0.980453 1.79375 0)
(1.07188 2.01983 0)
(0.493737 1.74953 0)
(1.17984 1.17721 0)
(0.0452138 1.0185 0)
(0.827129 1.99213 0)
(0.270791 1.09721 0)
(0.353018 1.53146 0)
(1.19836 1.83596 0)
(0.626562 1.90669 0)
(0.71025 1.09736 0)
(0.135731 1.19658 0)
(0.765796 1.57762 0)
(0.967669 1.77192 0)
(1.11725 1.55627 0)
(0.857511 1.90536 0)
(0.450257 1.63653 0)
(0.740168 1.91459 0)
(0.746125 1.91756 0)
(0.422058 1.19109 0)
(0.412482 1.18848 0)
(0.342066 1.47536 0)
(0.34546 1.48206 0)
(0.237538 1.24907 0)
(1.08761 1.89752 0)
(0.562938 1.82283 0)
(0.143744 1.16438 0)
(1.19117 1.43733 0)
(0.802691 1.66126 0)
(0.451081 1.69018 0)
(1.0031 2.03197 0)
(2.1077 1.56827 0)
(0.432346 1.32981 0)
(0.732165 1.26614 0)
(0.390421 1.30515 0)
(0.342283 1.42954 0)
(1.48172 1.72053 0)
(0.728333 2.04744 0)
(0.431842 0.926701 0)
(0.113832 1.22216 0)
(0.727948 1.88092 0)
(0.449212 1.23538 0)
(0.366391 1.48997 0)
(0.697666 1.94707 0)
(0.495124 1.11563 0)
(0.237593 1.34693 0)
(0.229568 1.05688 0)
(0.845035 2.02159 0)
(0.343239 1.52885 0)
(0.95453 1.97166 0)
(0.460784 1.68715 0)
(0.170072 1.11284 0)
(0.523408 1.35709 0)
(1.05374 2.0402 0)
(0.474315 1.7244 0)
(1.24622 1.19248 0)
(0.0367476 0.997505 0)
(1.63294 1.45025 0)
(0.86519 2.13325 0)
(0.101716 0.885331 0)
(0.25892 1.438 0)
(1.03576 1.99329 0)
(1.04382 1.99673 0)
(0.4922 1.74329 0)
(0.490166 1.73943 0)
(1.1109 1.22275 0)
(1.11844 1.21325 0)
(0.0856424 1.05756 0)
(0.0941375 1.06442 0)
(0.662894 1.50809 0)
(0.365228 1.32133 0)
(0.820802 1.98871 0)
(0.280408 1.10137 0)
(0.350143 1.52573 0)
(0.731701 1.49087 0)
(1.26398 1.68585 0)
(0.714246 1.98083 0)
(0.45638 1.06577 0)
(0.214974 1.33197 0)
(0.149221 0.677823 0)
(0.0184065 1.12126 0)
(2.11981 1.57196 0)
(0.80962 2.18107 0)
(0.542201 1.25422 0)
(0.370127 1.32354 0)
(0.849315 1.7281 0)
(1.09656 1.2523 0)
(0.1184 1.08178 0)
(1.01025 1.98544 0)
(0.481964 1.72483 0)
(1.18891 1.69641 0)
(0.992936 1.62506 0)
(1.03796 1.77402 0)
(0.281518 1.16924 0)
(0.850744 1.93852 0)
(0.419029 1.60564 0)
(0.266489 1.139 0)
(0.850647 1.96209 0)
(0.399463 1.58747 0)
(0.606945 0.895976 0)
(0.771101 1.89594 0)
(0.388297 1.22249 0)
(0.393062 1.5399 0)
(1.08217 1.89389 0)
(0.562974 1.82119 0)
(0.858025 1.18847 0)
(0.149638 1.17036 0)
(1.08172 1.91511 0)
(0.551532 1.81111 0)
(0.132981 1.14569 0)
(0.641049 1.47372 0)
(0.639387 1.467 0)
(0.789076 1.93157 0)
(0.792879 1.93751 0)
(0.350719 1.17695 0)
(0.343212 1.16933 0)
(0.374623 1.53346 0)
(0.372415 1.53346 0)
(0.603268 1.33222 0)
(0.870269 1.70905 0)
(0.392454 1.4625 0)
(0.357527 1.57038 0)
(0.945097 2.11537 0)
(1.52971 1.31866 0)
(0.0395846 0.918357 0)
(0.450363 1.58686 0)
(0.912468 1.71856 0)
(0.844956 1.30121 0)
(0.857146 1.30779 0)
(0.975475 2.03206 0)
(0.43458 1.66621 0)
(1.18056 1.63612 0)
(1.17413 1.62894 0)
(0.0241674 0.946211 0)
(1.42082 1.24746 0)
(1.29333 1.39688 0)
(0.893576 2.04144 0)
(0.479659 1.52012 0)
(0.965381 1.73274 0)
(0.629387 1.29972 0)
(1.21963 1.89456 0)
(0.605735 1.89376 0)
(1.21112 1.89174 0)
(0.604527 1.89095 0)