/*--------------------------------*- C++ -*----------------------------------*\
| =========                 |                                                 |
| \\      /  F ield         | OpenFOAM: The Open Source CFD Toolbox           |
|  \\    /   O peration     | Version:  2312                                  |
|   \\  /    A nd           | Website:  www.openfoam.com                      |
|    \\/     M anipulation  |                                                 |
\*---------------------------------------------------------------------------*/
FoamFile
{
    version     2.0;
    format      ascii;
    arch        "LSB;label=32;scalar=64";
    class       volVectorField;
    location    "1";
    object      D;
}
// * * * * * * * * * * * * * * * * * * * * * * * * * * * * * * * * * * * * * //

dimensions      [0 1 0 0 0 0 0];

internalField   nonuniform List<vector> 
26526
(
(1.5709 1.66659 0)
(1.11154 1.7176 0)
(1.02147 1.72831 0)
(1.01804 1.72985 0)
(0.879311 1.71039 0)
(1.24915 1.95361 0)
(0.365633 1.19817 0)
(0.603268 1.65019 0)
(0.243669 0.865694 0)
(0.164329 1.27509 0)
(0.895548 2.08331 0)
(1.08192 1.75409 0)
(1.65248 1.87033 0)
(1.6566 1.87026 0)
(0.84303 1.88156 0)
(0.8462 1.87759 0)
(0.798253 1.19397 0)
(0.789857 1.18422 0)
(0.282984 1.28358 0)
(0.27434 1.27843 0)
(1.21612 1.59155 0)
(0.777841 1.64801 0)
(1.38685 1.90972 0)
(0.740791 1.72494 0)
(0.420956 1.28846 0)
(2.04815 1.69558 0)
(0.877122 2.11486 0)
(1.2872 1.83539 0)
(0.826123 1.67107 0)
(1.23074 1.37331 0)
(0.941717 1.80534 0)
(0.515918 1.41849 0)
(1.42631 1.74498 0)
(0.585329 1.4468 0)
(1.78644 1.80249 0)
(0.949817 1.94163 0)
(0.563737 1.1243 0)
(0.319165 1.36085 0)
(0.322727 1.09073 0)
(1.09051 2.00247 0)
(0.438835 1.52898 0)
(1.59345 1.84746 0)
(0.725901 1.99224 0)
(0.0485003 1.11152 0)
(0.312801 1.08215 0)
(0.43201 1.52617 0)
(0.880232 1.55818 0)
(0.983177 1.51491 0)
(1.347 1.45431 0)
(1.81048 1.496 0)
(0.116344 0.906323 0)
(0.967837 2.11197 0)
(0.305061 1.46114 0)
(0.842263 1.89156 0)
(1.6714 1.86732 0)
(0.764207 1.16363 0)
(0.260563 1.27247 0)
(1.55637 1.89974 0)
(0.771069 1.85389 0)
(0.906686 1.19902 0)
(0.233491 1.22411 0)
(0.897038 1.47484 0)
(0.894617 1.46949 0)
(1.28658 1.74152 0)
(1.30375 1.71524 0)
(0.995904 1.33402 0)
(1.43885 1.9309 0)
(1.44927 1.92849 0)
(0.690137 1.83517 0)
(0.698494 1.83252 0)
(1.00291 1.18228 0)
(1.00348 1.1937 0)
(0.167265 1.15421 0)
(0.17994 1.16422 0)
(1.33594 1.44699 0)
(1.94451 1.70781 0)
(1.95414 1.70398 0)
(0.930725 2.05796 0)
(0.926333 2.06446 0)
(1.0298 1.48231 0)
(1.04428 1.50625 0)
(0.998341 1.39468 0)
(0.334322 1.14152 0)
(1.16752 1.98097 0)
(0.520795 1.59628 0)
(1.14185 1.61967 0)
(1.39255 1.80812 0)
(1.7535 1.72516 0)
(0.692597 1.43762 0)
(1.06642 1.89928 0)
(0.629509 1.25887 0)
(0.496105 1.48335 0)
(1.10744 1.5298 0)
(1.19409 1.87927 0)
(0.630948 1.33787 0)
(0.655266 1.59141 0)
(1.13761 1.6215 0)
(1.14174 2.01922 0)
(0.489038 1.61635 0)
(1.72953 1.42231 0)
(1.73429 1.41059 0)
(0.0801403 0.909055 0)
(0.0656712 0.89664 0)
(0.335471 1.50941 0)
(0.978185 2.11701 0)
(0.968153 2.12553 0)
(0.32794 1.50578 0)
(0.933834 1.55211 0)
(0.943548 1.55385 0)
(1.23966 1.99608 0)
(0.570519 1.74934 0)
(1.23008 1.99973 0)
(0.56419 1.74554 0)
(1.24581 1.24639 0)
(1.25582 1.24702 0)
(0.124716 1.07333 0)
(0.120565 1.06799 0)
(1.58142 1.69367 0)
(0.980344 1.67432 0)
(1.55487 1.90031 0)
(0.766285 1.85724 0)
(0.901752 1.1893 0)
(0.223709 1.21747 0)
(0.684194 1.57789 0)
(1.2698 1.98384 0)
(0.590149 1.77995 0)
(1.17506 1.20426 0)
(0.110619 1.07744 0)
(0.984173 1.69671 0)
(1.91052 1.54389 0)
(0.112476 0.862367 0)
(0.246278 1.39351 0)
(0.932329 2.12836 0)
(0.679987 1.51027 0)
(1.17928 1.74499 0)
(0.687766 1.4323 0)
(1.33171 1.59869 0)
(1.8858 1.66794 0)
(0.271589 0.967721 0)
(0.969451 2.05075 0)
(0.282046 1.39325 0)
(0.642168 1.46531 0)
(1.70082 1.67781 0)
(1.70162 1.68603 0)
(0.12279 0.810902 0)
(2.02168 1.61562 0)
(0.171401 1.30328 0)
(0.89731 2.13835 0)
(1.73215 1.80955 0)
(0.965265 1.9123 0)
(0.637014 1.18743 0)
(0.368389 1.3846 0)
(0.98453 1.6787 0)
(1.38393 1.688 0)
(1.38936 1.68533 0)
(1.41094 1.55601 0)
(1.17181 1.59672 0)
(1.57186 1.86922 0)
(1.1704 2.01791 0)
(0.51633 1.66416 0)
(1.10896 1.90433 0)
(0.597476 1.26533 0)
(0.534547 1.51995 0)
(0.993681 1.54483 0)
(0.982251 1.54223 0)
(1.55605 1.88538 0)
(1.60467 1.88575 0)
(0.808775 1.86376 0)
(0.857839 1.20147 0)
(0.261233 1.25501 0)
(1.45563 1.45628 0)
(1.20794 1.98706 0)
(0.273247 1.12981 0)
(0.550811 1.64784 0)
(1.34591 1.94867 0)
(0.660743 1.73384 0)
(1.2431 1.37434 0)
(0.284226 1.19109 0)
(1.35631 1.83411 0)
(0.879511 1.71439 0)
(1.29504 1.74354 0)
(0.98101 1.69264 0)
(1.22316 1.85977 0)
(0.718268 1.61776 0)
(1.3465 1.95361 0)
(0.653415 1.7468 0)
(1.21736 1.33737 0)
(0.250414 1.17265 0)
(1.04755 1.75769 0)
(0.840045 1.89536 0)
(1.67552 1.86665 0)
(0.755662 1.1547 0)
(0.253452 1.26838 0)
(0.17555 1.16555 0)
(0.751185 1.51081 0)
(1.10333 1.90112 0)
(0.60926 1.2696 0)
(0.533079 1.51554 0)
(1.20859 2.00712 0)
(0.551795 1.7525 0)
(1.24592 1.21711 0)
(0.0915883 1.04799 0)
(0.883012 1.75041 0)
(0.564659 1.40978 0)
(1.09338 1.29653 0)
(1.65548 1.45085 0)
(0.150713 0.984963 0)
(1.04638 2.06932 0)
(0.398582 1.55329 0)
(1.03774 1.60302 0)
(1.52045 1.74229 0)
(1.25787 1.91541 0)
(1.25083 1.91485 0)
(0.653631 1.63792 0)
(0.648996 1.63259 0)
(1.01543 1.8802 0)
(0.705018 1.27471 0)
(0.467063 1.44278 0)
(1.52168 1.73841 0)
(1.0281 2.09072 0)
(0.396545 1.57947 0)
(1.60586 1.36995 0)
(0.0856646 0.952511 0)
(0.488762 1.48087 0)
(1.5958 1.84313 0)
(0.725377 1.99911 0)
(0.0428886 1.10788 0)
(1.56924 1.8531 0)
(1.09653 1.28959 0)
(1.93719 1.47697 0)
(0.0386674 0.79904 0)
(0.895585 2.17573 0)
(0.214245 1.37293 0)
(1.07589 1.7032 0)
(1.56074 1.89519 0)
(0.74566 1.89138 0)
(0.836226 1.11006 0)
(0.160302 1.17878 0)
(1.34124 1.6053 0)
(1.56702 1.79078 0)
(1.35521 1.9454 0)
(0.668809 1.73723 0)
(0.289812 1.19755 0)
(1.52499 1.66684 0)
(1.93215 1.49016 0)
(0.0508948 0.810299 0)
(0.902403 2.16726 0)
(0.220246 1.37754 0)
(1.06434 1.90325 0)
(0.618955 1.25037 0)
(1.9049 1.55395 0)
(0.125889 0.873762 0)
(0.938137 2.12101 0)
(0.252181 1.39723 0)
(1.50933 1.91202 0)
(0.746572 1.8337 0)
(0.970746 1.22466 0)
(0.233898 1.21204 0)
(1.28308 1.83876 0)
(0.8152 1.66685 0)
(0.886458 1.71833 0)
(0.949324 1.74183 0)
(1.07392 1.89928 0)
(0.626278 1.26176 0)
(0.50407 1.49 0)
(1.1145 1.62301 0)
(1.10401 1.61624 0)
(1.67861 1.32906 0)
(0.00961699 0.871854 0)
(0.948449 2.1454 0)
(0.332172 1.53362 0)
(1.56448 1.88358 0)
(1.36418 1.83238 0)
(1.77529 1.82437 0)
(0.914462 1.93374 0)
(0.605299 1.11992 0)
(0.288163 1.32612 0)
(0.966233 1.72309 0)
(1.54926 1.82471 0)
(0.380086 1.13232 0)
(1.10808 1.97928 0)
(0.465571 1.53314 0)
(1.07999 1.71324 0)
(1.34961 1.83079 0)
(1.36083 1.9329 0)
(0.638266 1.89068 0)
(0.0462809 1.07147 0)
(0.923865 1.03925 0)
(1.64462 1.38666 0)
(0.0843475 0.939763 0)
(1.01229 2.09879 0)
(0.37814 1.55818 0)
(0.647704 1.53876 0)
(1.55718 1.83254 0)
(1.62668 1.8475 0)
(1.15357 1.71628 0)
(1.36493 1.892 0)
(0.763032 1.7057 0)
(0.498541 1.33026 0)
(1.10405 2.0502 0)
(1.10137 2.0505 0)
(0.459619 1.62687 0)
(0.463184 1.63357 0)
(1.11912 1.80053 0)
(1.65623 1.80569 0)
(1.01044 1.79113 0)
(1.66044 1.86064 0)
(0.773174 1.949 0)
(0.679959 1.01887 0)
(0.128679 1.17703 0)
(0.422231 1.30114 0)
(0.625904 1.45211 0)
(0.613908 1.44599 0)
(0.883195 1.60212 0)
(0.907196 1.82708 0)
(0.912164 1.83072 0)
(0.899407 1.33278 0)
(0.886937 1.32731 0)
(0.431229 1.37124 0)
(0.430424 1.37353 0)
(1.11912 1.80404 0)
(1.19107 1.95574 0)
(0.556994 1.60049 0)
(0.400496 1.1903 0)
(0.473947 0.80626 0)
(0.0064105 1.08804 0)
(0.739149 2.07163 0)
(1.67545 1.78434 0)
(1.99672 1.4707 0)
(0.00870181 0.751906 0)
(0.871532 2.20099 0)
(0.175903 1.33005 0)
(1.16943 1.84565 0)
(1.16163 1.57978 0)
(1.27545 1.83789 0)
(0.81134 1.66248 0)
(0.851183 1.48859 0)
(0.922246 1.74205 0)
(0.915069 1.73686 0)
(1.80591 1.82453 0)
(0.836315 1.9845 0)
(0.533947 0.986038 0)
(0.157475 1.22419 0)
(0.756751 1.58896 0)
(1.52397 1.90802 0)
(0.739448 1.85908 0)
(0.915634 1.1688 0)
(0.191951 1.18983 0)
(1.19443 1.95774 0)
(0.55822 1.60475 0)
(0.391713 1.187 0)
(1.08272 1.27672 0)
(0.985526 1.34315 0)
(1.36691 1.93157 0)
(1.35634 1.9351 0)
(0.694942 1.72741 0)
(0.685207 1.72277 0)
(0.347162 1.23501 0)
(0.342088 1.22808 0)
(0.755757 1.47023 0)
(2.11904 1.617 0)
(1.37846 1.57938 0)
(1.63359 1.84453 0)
(1.27874 1.7372 0)
(0.169006 0.693274 0)
(0.0216111 1.12154 0)
(0.820142 2.16119 0)
(1.53483 1.66939 0)
(1.68965 1.34041 0)
(0.0158861 0.873181 0)
(0.949629 2.14423 0)
(0.329678 1.52777 0)
(1.17112 1.54399 0)
(1.51342 1.36712 0)
(0.129659 1.01168 0)
(0.124918 1.01194 0)
(1.49961 1.35682 0)
(0.785723 1.51979 0)
(0.77742 1.51367 0)
(0.666758 1.40096 0)
(0.655811 1.39604 0)
(1.37061 1.6841 0)
(1.33536 1.78196 0)
(1.32684 1.78107 0)
(1.38725 1.58627 0)
(0.258571 0.874335 0)
(0.166281 1.27481 0)
(0.895547 2.07678 0)
(2.1156 1.60844 0)
(1.15085 1.4184 0)
(1.61133 1.86398 0)
(1.20268 1.60837 0)
(1.21945 1.64701 0)
(1.22429 1.64397 0)
(0.632285 1.45909 0)
(1.30676 1.52879 0)
(1.29674 1.52819 0)
(1.40915 1.69335 0)
(1.12484 1.60118 0)
(1.13324 1.60252 0)
(1.77559 1.75486 0)
(1.00608 1.95593 0)
(0.496599 1.12849 0)
(0.369852 1.41904 0)
(1.64007 1.69746 0)
(1.64014 1.6901 0)
(0.898743 1.7067 0)
(0.871935 1.54418 0)
(1.60961 1.82413 0)
(1.29297 1.88599 0)
(1.2947 1.88115 0)
(0.736882 1.66131 0)
(0.726768 1.65977 0)
(1.03665 2.08939 0)
(0.420763 1.62807 0)
(1.271 1.79 0)
(1.43433 1.93109 0)
(0.706771 1.79613 0)
(0.241405 1.19543 0)
(1.81777 1.49141 0)
(0.107643 0.897372 0)
(0.961444 2.11756 0)
(0.298534 1.45633 0)
(1.06675 1.8301 0)
(0.614868 1.51151 0)
(1.61858 1.4991 0)
(1.10047 2.02879 0)
(0.231513 1.0531 0)
(0.447652 1.57082 0)
(1.6497 1.84693 0)
(1.64991 1.84375 0)
(1.40329 1.82908 0)
(1.4009 1.83231 0)
(1.53791 1.90223 0)
(0.777365 1.8323 0)
(0.955429 1.24734 0)
(0.271093 1.24321 0)
(1.23085 1.88409 0)
(0.680181 1.61736 0)
(0.598677 1.33529 0)
(1.16071 1.58376 0)
(0.909851 1.69631 0)
(1.42932 1.62528 0)
(1.42374 1.61652 0)
(1.79499 1.80216 0)
(0.945403 1.94621 0)
(0.553663 1.11361 0)
(0.30978 1.35508 0)
(1.41096 1.54918 0)
(1.40408 1.93075 0)
(1.39937 1.93339 0)
(0.660732 1.87215 0)
(0.659016 1.86659 0)
(0.943923 1.08965 0)
(0.956701 1.09861 0)
(0.0892298 1.10343 0)
(0.0918444 1.10329 0)
(0.862003 1.54055 0)
(1.46112 1.70105 0)
(1.13785 1.74589 0)
(1.21476 1.71661 0)
(1.53659 1.90508 0)
(0.748594 1.85994 0)
(0.907313 1.17291 0)
(0.200888 1.19859 0)
(1.27959 1.70628 0)
(1.36531 1.93431 0)
(0.640506 1.88466 0)
(0.0545801 1.07671 0)
(0.933918 1.0516 0)
(0.93307 1.87353 0)
(0.7577 1.24725 0)
(0.384529 1.369 0)
(1.51871 1.68287 0)
(0.949214 1.98075 0)
(0.459147 1.05577 0)
(0.285023 1.35365 0)
(1.24232 1.82543 0)
(1.10497 1.49764 0)
(1.27588 1.73256 0)
(1.55389 1.86062 0)
(0.71303 1.97779 0)
(0.0477627 1.10574 0)
(1.38897 1.72608 0)
(1.03805 1.85351 0)
(0.53657 1.47446 0)
(1.49044 1.88535 0)
(0.691583 1.94749 0)
(0.765387 0.978572 0)
(0.0517207 1.09877 0)
(1.13417 1.72992 0)
(1.14251 1.73606 0)
(1.24672 1.82854 0)
(0.951802 1.60664 0)
(1.7189 1.54189 0)
(0.223743 1.01374 0)
(1.04726 2.04751 0)
(0.388321 1.51498 0)
(0.906713 1.70873 0)
(1.66866 1.72008 0)
(1.73052 1.77243 0)
(1.69595 1.62948 0)
(1.526 1.68024 0)
(0.834294 2.12364 0)
(1.1032 1.83396 0)
(1.83865 1.55183 0)
(0.161743 0.926185 0)
(0.974063 2.09355 0)
(0.300486 1.44214 0)
(1.02124 1.72083 0)
(1.563 1.35567 0)
(0.0913624 0.969265 0)
(1.39818 1.7302 0)
(0.925029 1.42296 0)
(0.391759 1.0737 0)
(1.01595 1.99319 0)
(0.357293 1.4348 0)
(1.27747 1.98165 0)
(0.594878 1.77685 0)
(1.17938 1.21567 0)
(0.121506 1.08492 0)
(0.711159 1.44414 0)
(1.08679 2.06215 0)
(0.457129 1.65046 0)
(1.07989 2.06593 0)
(0.453711 1.65251 0)
(1.04824 1.61015 0)
(1.04854 1.61389 0)
(1.12349 1.89269 0)
(0.624416 1.29224 0)
(0.565093 1.53363 0)
(1.32144 1.91235 0)
(0.700738 1.68171 0)
(0.458816 1.28535 0)
(0.969309 1.77035 0)
(1.4544 1.68175 0)
(1.45762 1.67773 0)
(0.74205 1.4345 0)
(0.447717 1.12176 0)
(0.394191 1.45227 0)
(1.5579 1.3775 0)
(0.118491 0.990965 0)
(0.931037 1.43017 0)
(1.17335 1.89609 0)
(0.592261 1.29979 0)
(0.608979 1.57323 0)
(1.26249 1.98674 0)
(0.586121 1.73651 0)
(1.24755 1.99256 0)
(0.575537 1.73421 0)
(1.26659 1.29215 0)
(1.27518 1.28511 0)
(0.168113 1.10132 0)
(0.15539 1.08991 0)
(0.827226 1.58533 0)
(0.639828 1.40586 0)
(1.50935 1.79129 0)
(1.51555 1.79498 0)
(1.54773 1.71138 0)
(1.56077 1.61519 0)
(1.39915 1.81153 0)
(0.939669 1.80851 0)
(0.506881 1.41428 0)
(1.12681 1.92983 0)
(0.518248 1.2245 0)
(0.522149 1.53532 0)
(1.55973 1.58772 0)
(0.638409 1.50041 0)
(1.00347 1.61308 0)
(0.874605 1.7482 0)
(0.557988 1.40343 0)
(0.991081 1.56552 0)
(1.12671 1.61922 0)
(1.19541 1.61003 0)
(0.873114 1.5973 0)
(0.388749 1.57281 0)
(1.01963 2.09596 0)
(1.61761 1.36976 0)
(0.0794743 0.944304 0)
(1.44396 1.61607 0)
(1.43102 1.61187 0)
(0.180105 1.17154 0)
(1.89535 1.49296 0)
(0.0701517 0.83968 0)
(0.77269 1.64317 0)
(0.132176 0.699205 0)
(0.0416713 1.14712 0)
(2.14923 1.6446 0)
(0.83835 2.16328 0)
(1.7723 1.5487 0)
(0.19862 0.977032 0)
(1.01418 2.06644 0)
(0.3497 1.48375 0)
(1.44515 1.92788 0)
(0.714933 1.79907 0)
(1.07142 1.27664 0)
(0.247104 1.20194 0)
(1.63026 1.43278 0)
(0.143534 0.987735 0)
(1.05378 2.06809 0)
(0.40854 1.56707 0)
(1.25655 1.84507 0)
(1.25738 1.84844 0)
(1.15796 1.60849 0)
(1.02913 2.09101 0)
(0.399526 1.58537 0)
(1.59514 1.36028 0)
(0.0803948 0.951705 0)
(0.257881 0.711853 0)
(0.005177 1.09931 0)
(0.00949299 0.685595 0)
(2.13489 1.53578 0)
(1.91953 1.70135 0)
(0.790105 2.14452 0)
(0.0963257 1.22561 0)
(0.851896 2.21558 0)
(0.926547 1.87377 0)
(0.760678 1.24311 0)
(0.37684 1.36268 0)
(1.02869 1.72598 0)
(0.167517 0.830457 0)
(0.154538 0.82018 0)
(2.02155 1.65965 0)
(2.02884 1.65163 0)
(0.166927 1.29039 0)
(0.162367 1.28731 0)
(0.898585 2.1169 0)
(0.895796 2.12389 0)
(0.188513 0.806243 0)
(0.125523 1.24004 0)
(1.77218 1.5387 0)
(0.186982 0.969173 0)
(1.01029 2.07187 0)
(0.346554 1.48437 0)
(1.40572 1.94004 0)
(0.685482 1.78875 0)
(1.10825 1.27404 0)
(0.225713 1.17796 0)
(0.574726 0.953658 0)
(1.52579 1.86542 0)
(1.54044 1.82508 0)
(1.09302 1.49488 0)
(1.56845 1.5852 0)
(1.23435 1.67622 0)
(1.13876 2.02967 0)
(0.488932 1.63803 0)
(1.04842 1.8298 0)
(0.593546 1.4963 0)
(1.09039 1.8368 0)
(0.7935 1.39269 0)
(0.627616 1.52705 0)
(0.97104 1.72221 0)
(0.894484 1.55346 0)
(0.882958 1.55141 0)
(1.06878 1.84711 0)
(0.583149 1.50381 0)
(0.670414 1.47337 0)
(0.581377 1.86018 0)
(1.23907 1.97191 0)
(0.00736972 1.02407 0)
(1.02168 1.04214 0)
(0.960861 1.62673 0)
(1.86356 1.76616 0)
(0.799448 2.07541 0)
(0.956107 1.7461 0)
(1.40479 1.30397 0)
(0.11242 1.0272 0)
(1.14028 2.03633 0)
(0.497896 1.68005 0)
(1.03645 1.72814 0)
(0.856288 1.77287 0)
(0.243305 0.71106 0)
(0.0096309 1.10483 0)
(0.0176761 0.6868 0)
(2.13993 1.55038 0)
(1.9462 1.69864 0)
(0.796449 2.14573 0)
(0.0922032 1.21942 0)
(0.853121 2.21107 0)
(1.09808 1.79617 0)
(1.44398 1.80367 0)
(1.43473 1.80036 0)
(0.732496 1.42738 0)
(0.821871 1.39843 0)
(1.36572 1.81878 0)
(1.0292 1.59064 0)
(1.01852 1.58748 0)
(0.970247 1.63067 0)
(1.03399 1.499 0)
(1.8813 1.62514 0)
(0.220772 0.943236 0)
(0.968675 2.07184 0)
(0.282481 1.40641 0)
(1.11185 1.88487 0)
(0.651789 1.30367 0)
(0.564745 1.52551 0)
(1.73557 1.43672 0)
(0.092287 0.916014 0)
(0.982951 2.11178 0)
(0.336799 1.50641 0)
(1.22466 1.95483 0)
(0.584419 1.62964 0)
(0.380189 1.19516 0)
(1.31719 1.94608 0)
(0.652219 1.70244 0)
(0.333049 1.20799 0)
(1.02459 1.56751 0)
(1.668 1.83802 0)
(1.034 2.0908 0)
(0.416521 1.62089 0)
(1.54607 1.74969 0)
(1.68017 1.86663 0)
(0.827202 1.90725 0)
(0.735175 1.12516 0)
(0.225828 1.24997 0)
(1.39429 1.94242 0)
(0.680503 1.77943 0)
(0.233793 1.17899 0)
(1.12776 1.92523 0)
(0.530105 1.23252 0)
(0.527925 1.53565 0)
(0.74096 1.50455 0)
(1.40218 1.68804 0)
(1.54946 1.74077 0)
(1.40898 1.7883 0)
(1.34297 1.83087 0)
(1.03574 1.96882 0)
(1.11467 1.72236 0)
(1.20643 1.58957 0)
(1.61963 1.86229 0)
(0.955315 1.68169 0)
(1.10356 1.80104 0)
(1.11136 1.80392 0)
(1.08093 1.8203 0)
(1.38083 1.88968 0)
(0.775746 1.71546 0)
(0.494574 1.33442 0)
(1.69159 1.83491 0)
(0.934459 1.89186 0)
(0.725138 1.22252 0)
(0.36021 1.36201 0)
(0.350663 1.13833 0)
(1.14559 1.98095 0)
(0.501007 1.5734 0)
(1.67044 1.84064 0)
(0.69147 1.52548 0)
(1.09362 1.70906 0)
(1.81683 1.82098 0)
(0.839988 1.98846 0)
(0.520781 0.980911 0)
(0.157786 1.22641 0)
(0.884308 1.60523 0)
(1.03501 1.99246 0)
(2.01651 1.73005 0)
(0.864193 2.09404 0)
(1.45085 1.81923 0)
(1.53758 1.54969 0)
(1.10416 1.6734 0)
(1.34724 1.72365 0)
(0.652335 1.52946 0)
(1.26678 1.78576 0)
(1.22242 1.87631 0)
(0.686334 1.61265 0)
(0.621008 1.38441 0)
(0.66603 1.69836 0)
(1.30562 1.90151 0)
(0.708843 1.66876 0)
(0.507031 1.30977 0)
(1.41463 1.83895 0)
(1.6736 1.71548 0)
(0.757756 1.46806 0)
(1.67352 1.85747 0)
(0.778269 1.95276 0)
(0.666349 1.01466 0)
(0.130006 1.18014 0)
(1.13454 1.66065 0)
(0.592205 1.35894 0)
(0.590193 1.3536 0)
(1.23754 1.65871 0)
(1.22522 1.65395 0)
(0.669293 1.8014 0)
(1.39262 1.94514 0)
(0.186692 1.15263 0)
(1.57856 1.86561 0)
(1.4242 1.52579 0)
(1.0364 1.98723 0)
(0.964668 1.47753 0)
(0.9508 1.47177 0)
(1.55039 1.83527 0)
(1.23456 1.88791 0)
(0.676926 1.61956 0)
(0.58646 1.32874 0)
(1.45562 1.92318 0)
(0.72838 1.79586 0)
(1.06939 1.29196 0)
(0.268925 1.21797 0)
(1.40641 1.78436 0)
(1.90318 1.48736 0)
(0.0614315 0.830179 0)
(0.650455 1.36355 0)
(0.995013 1.51977 0)
(0.658796 1.37029 0)
(1.33282 1.79171 0)
(1.38477 1.54697 0)
(1.01513 1.79885 0)
(1.35117 1.72826 0)
(2.1627 1.59586 0)
(0.759552 1.59319 0)
(1.67441 1.65024 0)
(1.08 1.92923 0)
(1.07749 1.93447 0)
(0.538047 1.20813 0)
(0.524644 1.19806 0)
(0.475083 1.49282 0)
(0.467412 1.49067 0)
(1.65303 1.7532 0)
(1.65679 1.7476 0)
(1.25316 1.9692 0)
(0.592708 1.67116 0)
(0.299443 1.16345 0)
(1.14093 1.66002 0)
(0.770709 1.33912 0)
(1.69867 1.85848 0)
(0.859368 1.9015 0)
(0.726805 1.15307 0)
(0.266307 1.28427 0)
(1.1153 1.53667 0)
(1.04417 1.69771 0)
(1.04387 1.70075 0)
(1.01284 1.61495 0)
(1.08276 1.8359 0)
(0.799252 1.3921 0)
(0.620972 1.52138 0)
(0.972585 1.79923 0)
(0.568015 1.45118 0)
(0.887213 1.55783 0)
(0.884197 1.21408 0)
(1.72174 1.77017 0)
(1.69232 1.83171 0)
(0.719959 1.22451 0)
(1.54274 1.74317 0)
(1.12336 1.64483 0)
(1.50497 1.90988 0)
(0.761034 1.8158 0)
(1.00499 1.27153 0)
(0.277185 1.23764 0)
(1.71549 1.77265 0)
(0.119093 0.697331 0)
(0.0456708 1.15272 0)
(2.14354 1.65295 0)
(0.84222 2.16675 0)
(1.68566 1.83758 0)
(0.968421 1.5618 0)
(1.57814 1.406 0)
(1.5872 1.40211 0)
(0.140612 1.00136 0)
(0.131299 0.991874 0)
(1.14462 2.02771 0)
(0.494255 1.64361 0)
(1.2793 1.7222 0)
(1.01146 1.9269 0)
(0.574663 1.18276 0)
(0.403266 1.427 0)
(1.29625 1.97142 0)
(0.613823 1.7305 0)
(1.26834 1.33503 0)
(0.220225 1.13913 0)
(1.07631 1.69998 0)
(1.11251 1.60334 0)
(1.13994 1.74964 0)
(1.33338 1.19692 0)
(0.0288888 0.98007 0)
(1.09857 2.05356 0)
(0.483672 1.7167 0)
(0.831707 2.12868 0)
(1.21691 1.63699 0)
(1.62991 1.70555 0)
(1.63912 1.85059 0)
(0.749537 1.97695 0)
(0.642514 0.958008 0)
(0.0820756 1.14108 0)
(1.96724 1.52252 0)
(0.0613699 0.806917 0)
(0.899182 2.16355 0)
(0.208556 1.3605 0)
(0.332289 0.927271 0)
(1.94687 1.75256 0)
(0.902269 2.04315 0)
(0.189507 1.28682 0)
(1.13045 2.04094 0)
(0.490576 1.67521 0)
(1.39382 1.88304 0)
(0.795761 1.72293 0)
(0.506415 1.34821 0)
(1.04244 1.45318 0)
(1.51223 1.86484 0)
(1.09043 1.75013 0)
(1.09956 1.75071 0)
(1.03526 1.56942 0)
(0.144373 0.677078 0)
(0.0170433 1.11716 0)
(2.18347 1.59541 0)
(0.822171 2.1722 0)
(1.80017 1.70367 0)
(1.87631 1.7663 0)
(0.805023 2.07373 0)
(1.62901 1.69827 0)
(1.01359 1.824 0)
(0.56469 1.46969 0)
(0.784087 1.41012 0)
(0.785153 1.40597 0)
(1.57016 1.62011 0)
(1.13696 1.61365 0)
(0.705324 1.7135 0)
(1.10562 1.83875 0)
(0.782464 1.39412 0)
(0.640726 1.53824 0)
(0.634357 1.48987 0)
(1.29024 1.87162 0)
(0.751796 1.65994 0)
(1.09313 1.70564 0)
(1.48035 1.33367 0)
(0.108311 1.00473 0)
(0.888638 1.66185 0)
(1.73266 1.8178 0)
(0.950922 1.90991 0)
(0.649472 1.18431 0)
(0.355338 1.37115 0)
(1.48111 1.79276 0)
(0.237323 0.820796 0)
(0.115994 1.22315 0)
(1.10636 1.2901 0)
(1.17298 1.74596 0)
(1.19715 1.60075 0)
(1.58612 1.68915 0)
(1.04558 1.67563 0)
(1.00815 1.39492 0)
(1.49635 1.83301 0)
(0.983024 1.82497 0)
(0.871833 1.37448 0)
(0.526594 1.4423 0)
(0.860695 1.51269 0)
(0.744451 1.54833 0)
(1.60925 1.82806 0)
(1.06091 1.67053 0)
(1.06103 1.6743 0)
(0.566422 0.955712 0)
(1.47046 1.29185 0)
(0.0666869 0.975813 0)
(1.49815 1.8884 0)
(0.42963 1.19051 0)
(1.8204 1.60544 0)
(0.237768 0.98207 0)
(1.00136 2.05596 0)
(0.328183 1.4494 0)
(0.09567 0.995691 0)
(1.47857 1.32167 0)
(0.672881 1.50935 0)
(0.852154 1.50621 0)
(0.652266 1.37428 0)
(0.639374 1.36705 0)
(1.15336 2.03065 0)
(0.514455 1.72087 0)
(1.31996 1.23525 0)
(0.0765646 1.02009 0)
(1.37443 1.93159 0)
(0.697631 1.73359 0)
(0.338697 1.2327 0)
(2.01577 1.72012 0)
(1.17889 1.55697 0)
(0.698659 1.71319 0)
(1.39151 1.91084 0)
(0.74049 1.72853 0)
(0.412612 1.28482 0)
(1.93584 1.77323 0)
(0.360689 0.89779 0)
(0.86355 2.04522 0)
(0.140208 1.23257 0)
(1.09875 1.70558 0)
(1.53865 1.86945 0)
(0.709127 1.96527 0)
(0.712125 0.958979 0)
(0.054039 1.10768 0)
(1.89272 1.65976 0)
(0.255925 0.955946 0)
(0.965431 2.05825 0)
(0.275991 1.39084 0)
(0.720899 1.45031 0)
(1.47233 1.73079 0)
(1.7285 1.85194 0)
(1.73667 1.84877 0)
(0.853076 1.92288 0)
(0.861535 1.92375 0)
(0.675172 1.10802 0)
(0.666801 1.11079 0)
(0.234715 1.26805 0)
(0.242544 1.27613 0)
(0.943144 1.9817 0)
(0.46017 1.05062 0)
(0.27715 1.34633 0)
(1.87233 1.68417 0)
(1.8687 1.67744 0)
(0.976506 2.03604 0)
(0.979123 2.038 0)
(0.303644 0.990994 0)
(0.29731 0.990209 0)
(0.293635 1.39706 0)
(0.296911 1.40186 0)
(1.23019 1.70603 0)
(1.71218 1.64254 0)
(1.66547 1.45769 0)
(0.153134 0.983489 0)
(1.04326 2.06993 0)
(0.394373 1.54776 0)
(0.557768 1.73458 0)
(1.22115 2.00307 0)
(1.28048 1.26308 0)
(0.127033 1.06745 0)
(1.10044 1.79376 0)
(1.75903 1.84243 0)
(0.861286 1.93816 0)
(0.629403 1.08326 0)
(0.226773 1.26961 0)
(1.20746 1.80662 0)
(1.21341 2.00174 0)
(0.550662 1.69184 0)
(1.36942 1.35059 0)
(0.185813 1.09015 0)
(0.960864 1.88376 0)
(0.719169 1.24163 0)
(0.400836 1.39071 0)
(1.08593 1.58871 0)
(1.40226 1.91972 0)
(0.728314 1.74264 0)
(0.364645 1.25847 0)
(1.54188 1.83466 0)
(1.00815 1.81381 0)
(1.01775 1.81623 0)
(0.815845 1.49793 0)
(1.01741 1.88458 0)
(0.69181 1.26685 0)
(0.462845 1.44303 0)
(1.49464 1.88782 0)
(0.694427 1.94109 0)
(0.775293 0.99101 0)
(0.0599571 1.10449 0)
(0.989477 1.93147 0)
(0.998031 1.9313 0)
(0.572004 1.1636 0)
(0.568451 1.16815 0)
(0.373944 1.40415 0)
(0.383662 1.41286 0)
(0.729367 1.60639 0)
(0.961598 1.8053 0)
(0.540511 1.43658 0)
(0.761435 1.51322 0)
(0.992832 1.63675 0)
(0.984793 1.63156 0)
(1.30181 1.74231 0)
(1.05878 1.82651 0)
(0.612824 1.50635 0)
(1.81039 1.82534 0)
(0.850735 1.97634 0)
(0.540735 1.00784 0)
(0.179229 1.2429 0)
(1.68166 1.82384 0)
(1.53586 1.86106 0)
(0.70528 1.9813 0)
(0.0378796 1.09676 0)
(0.940669 1.89365 0)
(0.364709 1.36727 0)
(1.05715 1.99736 0)
(0.358331 1.08656 0)
(0.403448 1.48577 0)
(0.855274 1.59315 0)
(0.848483 1.58786 0)
(1.86127 1.525 0)
(0.119615 0.888407 0)
(0.95117 2.11798 0)
(0.277101 1.42782 0)
(1.86243 1.41088 0)
(0.00952446 0.807728 0)
(0.899217 2.18042 0)
(0.245848 1.42116 0)
(1.72165 1.64364 0)
(0.954322 1.80447 0)
(0.533262 1.4306 0)
(0.644048 1.50084 0)
(0.915467 1.71399 0)
(0.560277 1.70952 0)
(1.22612 1.99887 0)
(1.33082 1.32208 0)
(0.171325 1.08891 0)
(1.37534 1.91945 0)
(0.718248 1.72289 0)
(0.391548 1.26518 0)
(1.67638 1.79174 0)
(1.04486 1.67893 0)
(1.56698 1.37289 0)
(0.108569 0.980999 0)
(1.10044 1.67514 0)
(0.969583 1.47377 0)
(1.21428 1.85819 0)
(0.71322 1.61204 0)
(1.01815 1.59708 0)
(1.44684 1.92642 0)
(0.71972 1.79528 0)
(1.07643 1.28845 0)
(0.259018 1.20944 0)
(0.728769 1.61384 0)
(0.718371 1.60996 0)
(1.08569 1.46331 0)
(1.24591 1.47643 0)
(1.37005 1.79109 0)
(1.7491 1.84555 0)
(0.859095 1.93297 0)
(0.64449 1.0919 0)
(0.229962 1.26962 0)
(0.920778 1.86429 0)
(0.927742 1.86455 0)
(0.792183 1.26106 0)
(0.788095 1.26416 0)
(0.384521 1.36199 0)
(0.392063 1.36846 0)
(1.50304 1.55382 0)
(1.94585 1.74915 0)
(0.329151 0.93064 0)
(0.906691 2.04311 0)
(0.195455 1.29337 0)
(0.666209 1.70241 0)
(1.57547 1.46958 0)
(1.58194 1.48193 0)
(1.11993 2.02271 0)
(1.11823 2.02635 0)
(0.468169 1.59051 0)
(0.466685 1.5941 0)
(0.231773 1.06507 0)
(0.219964 1.0587 0)
(1.12248 1.86953 0)
(0.690773 1.33763 0)
(0.600851 1.5386 0)
(1.73452 1.8486 0)
(0.820944 1.94936 0)
(0.634169 1.04179 0)
(0.174603 1.22389 0)
(0.795816 1.40245 0)
(0.767363 1.47088 0)
(0.915806 1.86099 0)
(0.803911 1.26547 0)
(0.384058 1.3591 0)
(0.851265 1.43152 0)
(0.0381509 0.666869 0)
(0.0564995 1.17144 0)
(2.09247 1.66508 0)
(0.849514 2.20259 0)
(0.825369 1.76998 0)
(1.54611 1.90238 0)
(0.752832 1.8644 0)
(0.893838 1.16668 0)
(0.199833 1.20028 0)
(1.23574 1.94361 0)
(1.22825 1.9467 0)
(0.603343 1.63186 0)
(0.594577 1.62738 0)
(0.411056 1.21827 0)
(0.405616 1.21152 0)
(0.403797 1.08219 0)
(1.01791 1.98828 0)
(0.362073 1.43593 0)
(1.09986 1.71352 0)
(0.840091 1.39996 0)
(0.902075 1.40785 0)
(0.908464 1.40687 0)
(1.37098 1.91864 0)
(0.716659 1.71878 0)
(0.398852 1.26797 0)
(0.511634 1.68249 0)
(1.16061 2.02655 0)
(0.588275 1.8643 0)
(1.25357 1.96672 0)
(0.0121337 1.02992 0)
(1.00958 1.0417 0)
(1.22468 1.56949 0)
(0.997253 1.56528 0)
(1.13553 1.76477 0)
(1.76692 1.82821 0)
(0.910596 1.92925 0)
(0.619799 1.12633 0)
(0.288773 1.32371 0)
(1.08955 1.23401 0)
(1.11561 1.64016 0)
(1.04971 1.82614 0)
(0.602383 1.49898 0)
(0.937716 1.80064 0)
(0.520908 1.41828 0)
(1.01222 1.8015 0)
(1.29387 1.60571 0)
(0.830198 1.39173 0)
(1.44509 1.45477 0)
(1.50957 1.54968 0)
(1.22765 1.57526 0)
(1.33963 1.83379 0)
(0.86978 1.70509 0)
(1.34046 1.8792 0)
(0.773384 1.69049 0)
(0.554364 1.35807 0)
(0.236622 0.8272 0)
(0.123431 1.23143 0)
(1.17943 1.77638 0)
(1.60683 1.86951 0)
(0.745994 1.94585 0)
(0.713883 1.01084 0)
(0.105662 1.15222 0)
(0.368068 1.13478 0)
(1.123 1.98017 0)
(0.479914 1.54938 0)
(1.32167 1.90907 0)
(0.706408 1.68077 0)
(0.470574 1.29299 0)
(1.57741 1.86308 0)
(1.20222 1.89186 0)
(0.642125 1.59558 0)
(0.591174 1.31485 0)
(1.14284 1.76691 0)
(1.19205 2.01319 0)
(0.542139 1.7515 0)
(1.25106 1.207 0)
(0.0779796 1.0364 0)
(0.942516 1.60364 0)
(0.726466 1.40705 0)
(2.12706 1.66458 0)
(2.12004 1.66989 0)
(1.85817 1.75486 0)
(0.959579 1.99442 0)
(0.418464 1.04005 0)
(0.288423 1.36566 0)
(1.00922 1.8591 0)
(1.01505 1.862 0)
(0.76839 1.31617 0)
(0.756649 1.31185 0)
(0.494977 1.44671 0)
(0.495904 1.45028 0)
(1.57153 1.89324 0)
(0.753384 1.89063 0)
(0.831849 1.11602 0)
(0.169142 1.18672 0)
(1.12012 1.85462 0)
(0.733028 1.36678 0)
(0.625322 1.54238 0)
(0.806689 1.56091 0)
(0.120875 0.819289 0)
(2.00604 1.60473 0)
(0.183326 1.31773 0)
(0.902451 2.13725 0)
(1.19395 1.74363 0)
(1.29407 1.97312 0)
(0.611109 1.73368 0)
(1.26273 1.32528 0)
(0.210662 1.13347 0)
(1.08223 1.5908 0)
(1.47328 1.86741 0)
(1.18368 2.01739 0)
(0.535436 1.73958 0)
(1.27709 1.22365 0)
(0.0840707 1.03545 0)
(1.13215 1.95059 0)
(0.450839 1.18739 0)
(0.508082 1.54461 0)
(1.56479 1.89731 0)
(0.778624 1.85438 0)
(0.900493 1.20265 0)
(0.241058 1.23113 0)
(1.2704 1.70312 0)
(1.4744 1.85431 0)
(1.60884 1.71888 0)
(1.26183 1.90431 0)
(0.672075 1.63879 0)
(1.08743 1.87561 0)
(1.09501 1.87915 0)
(0.688279 1.31342 0)
(0.675095 1.30911 0)
(0.553496 1.5077 0)
(0.555941 1.51298 0)
(0.429737 1.31221 0)
(1.43121 1.92992 0)
(0.711377 1.78632 0)
(0.262799 1.20694 0)
(1.57871 1.5895 0)
(1.32041 1.76327 0)
(0.517506 1.68107 0)
(1.16944 2.02193 0)
(2.16396 1.60522 0)
(0.756455 1.44081 0)
(1.06872 1.41544 0)
(0.688124 1.40889 0)
(0.588733 1.48015 0)
(1.81951 1.82192 0)
(0.852997 1.98063 0)
(0.528029 1.00133 0)
(0.177743 1.2436 0)
(1.09936 1.85377 0)
(0.744196 1.36159 0)
(0.604418 1.52597 0)
(0.953872 1.8833 0)
(0.72389 1.23934 0)
(0.393645 1.38426 0)
(0.37963 1.13609 0)
(1.11461 1.97805 0)
(0.472705 1.53935 0)
(1.26161 1.96546 0)
(0.601049 1.67463 0)
(0.306619 1.1709 0)
(0.892585 1.48581 0)
(1.14094 2.03595 0)
(0.506665 1.71764 0)
(1.328 1.23091 0)
(0.0679827 1.01166 0)
(1.83313 1.53991 0)
(0.972878 2.09772 0)
(0.151643 0.921734 0)
(0.301409 1.44617 0)
(1.24714 1.99158 0)
(1.24017 1.99504 0)
(0.570424 1.72753 0)
(0.575583 1.72312 0)
(1.29798 1.30973 0)
(1.2907 1.29386 0)
(0.157997 1.08833 0)
(0.173322 1.09802 0)
(1.12453 1.63345 0)
(0.651099 1.41373 0)
(1.12868 1.94629 0)
(0.465371 1.19398 0)
(0.508324 1.54016 0)
(1.20579 1.6337 0)
(1.73564 1.82043 0)
(0.944902 1.91099 0)
(0.649512 1.1791 0)
(0.347362 1.36481 0)
(0.15106 0.687262 0)
(0.0232074 1.12413 0)
(2.17234 1.60718 0)
(0.824575 2.16604 0)
(0.865784 1.39406 0)
(0.659259 1.41704 0)
(1.36555 1.81051 0)
(1.32451 1.35593 0)
(0.216606 1.12337 0)
(1.25911 1.98297 0)
(0.586667 1.70825 0)
(1.68273 1.82712 0)
(1.52384 1.76841 0)
(1.5342 1.86322 0)
(0.491013 1.25917 0)
(1.22016 1.92192 0)
(0.615371 1.61109 0)
(0.459955 1.22666 0)
(1.19365 1.93679 0)
(0.576507 1.59404 0)
(0.641082 0.922308 0)
(1.15769 1.87529 0)
(0.65927 1.33666 0)
(0.626942 1.56472 0)
(1.43499 1.92774 0)
(0.717124 1.78439 0)
(1.0999 1.30668 0)
(0.273323 1.21431 0)
(1.40022 1.93982 0)
(0.68681 1.77817 0)
(0.244057 1.18665 0)
(1.08698 1.60363 0)
(1.08286 1.59823 0)
(1.14958 1.90052 0)
(1.14888 1.90513 0)
(0.590334 1.28495 0)
(0.577149 1.27587 0)
(0.579957 1.55398 0)
(0.572972 1.55313 0)
(0.98071 1.47766 0)
(1.39478 1.80426 0)
(0.681777 1.52009 0)
(0.382147 1.57071 0)
(1.00993 2.10264 0)
(1.62053 1.35935 0)
(0.0670498 0.934132 0)
(0.734048 1.61217 0)
(1.43912 1.81706 0)
(1.19706 1.45235 0)
(1.21298 1.4595 0)
(1.16808 2.01774 0)
(0.514021 1.65845 0)
(1.68195 1.78617 0)
(1.67629 1.78063 0)
(0.0432646 0.955937 0)
(1.47761 1.27326 0)
(1.60156 1.52504 0)
(1.12502 2.00859 0)
(0.835905 1.58703 0)
(1.48877 1.83283 0)
(0.990721 1.44868 0)
(1.45549 1.9235 0)
(0.69299 1.85837 0)
(1.46226 1.92284 0)
(0.698828 1.8539 0)
(0.955641 1.1518 0)
(0.949891 1.13906 0)
(0.141614 1.14415 0)
(0.153866 1.15269 0)
(1.68334 1.64882 0)
(1.50301 1.76566 0)
(1.76902 1.77833 0)
(0.321414 1.13202 0)
(1.16202 1.98625 0)
(0.514044 1.59561 0)
(1.93526 1.51957 0)
(1.23646 1.64862 0)
(1.87164 1.42484 0)
(0.0180621 0.810619 0)
(0.901719 2.17674 0)
(0.243721 1.41598 0)
(0.690064 1.59062 0)
(0.710493 1.5673 0)
(1.33525 1.95764 0)