/*--------------------------------*- C++ -*----------------------------------*\
| =========                 |                                                 |
| \\      /  F ield         | OpenFOAM: The Open Source CFD Toolbox           |
|  \\    /   O peration     | Version:  2312                                  |
|   \\  /    A nd           | Website:  www.openfoam.com                      |
|    \\/     M anipulation  |                                                 |
\*---------------------------------------------------------------------------*/
FoamFile
{
    version     2.0;
    format      ascii;
    arch        "LSB;label=32;scalar=64";
    class       volVectorField;
    location    "1";
    object      D_0;
}
// * * * * * * * * * * * * * * * * * * * * * * * * * * * * * * * * * * * * * //

dimensions      [0 1 0 0 0 0 0];

internalField   uniform (0 0 0);

boundaryField
{
    frontAndBack
    {
        type            empty;
    }
    sides
    {
        nonOrthogonalCorrections true;
        type            manufacturedSolution;
        value           nonuniform List<vector> 
400
(
(1.67734 1.31882 0)
(0 0.864516 0)
(0.941408 2.1507 0)
(0.328769 1.53324 0)
(0.473275 0.798324 0)
(0 1.08183 0)
(0.734548 2.07611 0)
(1.662 1.78215 0)
(1.99671 1.45939 0)
(0 0.745471 0)
(0.86764 2.20659 0)
(0.174108 1.32942 0)
(0.257849 0.705284 0)
(0 1.09366 0)
(0 0.678597 0)
(2.13773 1.52246 0)
(1.9087 1.69777 0)
(0.786425 2.14868 0)
(0.0948572 1.22465 0)
(0.8491 2.22151 0)
(0.576959 1.86205 0)
(1.22829 1.97376 0)
(0 1.01819 0)
(1.02088 1.03438 0)
(1.86281 1.40016 0)
(0 0.800088 0)
(0.893527 2.18637 0)
(0.242556 1.41967 0)
(0.648034 1.95772 0)
(1.38323 1.89729 0)
(0.790313 0.935 0)
(0 1.05115 0)
(1.82284 1.38257 0)
(0 0.814984 0)
(0.902688 2.17937 0)
(0.261909 1.44517 0)
(1.44429 1.86987 0)
(0.670587 1.98833 0)
(0.711943 0.901227 0)
(0 1.06026 0)
(1.19458 1.10934 0)
(0 0.986841 0)
(1.13249 2.02693 0)
(0.518418 1.78396 0)
(0.203567 1.36828 0)
(0.877587 2.19874 0)
(0 0.769341 0)
(1.94048 1.43446 0)
(0.970289 1.01257 0)
(0 1.02624 0)
(1.25938 1.95754 0)
(0.593178 1.88379 0)
(0.632673 1.93694 0)
(1.34531 1.91504 0)
(0 1.04456 0)
(0.842168 0.957346 0)
(0.961387 2.13644 0)
(0.356949 1.57038 0)
(0 0.884462 0)
(1.61242 1.2905 0)
(0.792563 2.15738 0)
(1.94375 1.68682 0)
(0.0848977 1.21145 0)
(0.847573 2.22276 0)
(2.15441 1.52998 0)
(0 0.669923 0)
(0 1.09465 0)
(0.230776 0.693576 0)
(1.48798 1.85107 0)
(0.685289 2.00838 0)
(0.659336 0.878554 0)
(0 1.0658 0)
(1.80259 1.37367 0)
(0 0.822311 0)
(0.907575 2.17568 0)
(0.271547 1.45786 0)
(1.88251 1.40884 0)
(0 0.79252 0)
(0.889248 2.18966 0)
(0.232843 1.40687 0)
(0.713864 2.04755 0)
(1.58316 1.81227 0)
(0.553353 0.832864 0)
(0 1.07561 0)
(0.06795 0.623064 0)
(0 1.09827 0)
(0 0.616506 0)
(0.0249974 1.13191 0)
(2.24993 1.57333 0)
(2.17716 1.61942 0)
(0.827702 2.20773 0)
(0.841997 2.22733 0)
(0 1.0975 0)
(0.122281 0.646612 0)
(0 0.634568 0)
(2.21897 1.55922 0)
(0.0449848 1.15849 0)
(2.09472 1.64221 0)
(0.816314 2.19129 0)
(0.843177 2.22636 0)
(1.71978 1.33737 0)
(0 0.850786 0)
(0.929249 2.15955 0)
(0.309816 1.50827 0)
(1.15792 2.01232 0)
(0.535416 1.80658 0)
(1.14551 1.08815 0)
(0 0.996299 0)
(1.90203 1.41745 0)
(0 0.784872 0)
(0.885167 2.19282 0)
(0.223106 1.39404 0)
(0.430458 1.66738 0)
(1.02575 2.09276 0)
(0 0.933711 0)
(1.43238 1.21224 0)
(0.375559 1.59491 0)
(0.975916 2.12629 0)
(0 0.897317 0)
(1.56834 1.2713 0)
(0.624897 1.92645 0)
(1.32713 1.92376 0)
(0.867971 0.968466 0)
(0 1.0411 0)
(1.10851 2.04106 0)
(0.501213 1.76109 0)
(1.24317 1.13034 0)
(0 0.976988 0)
(1.74075 1.34655 0)
(0 0.843793 0)
(0.923505 2.16378 0)
(0.300293 1.49573 0)
(0.919314 0.990594 0)
(0 1.03388 0)
(0.609159 1.90526 0)
(1.2923 1.94087 0)
(0.439462 1.67928 0)
(1.03502 2.08673 0)
(0 0.939453 0)
(1.40921 1.20219 0)
(0.284895 0.716977 0)
(0 1.09256 0)
(0 0.687203 0)
(2.12083 1.51485 0)
(1.87465 1.70862 0)
(0.780209 2.1399 0)
(0.104807 1.23782 0)
(0.8508 2.22013 0)
(0.176564 0.670119 0)
(0 1.09629 0)
(2.18713 1.54477 0)
(0 0.652376 0)
(2.01702 1.66468 0)
(0.0649542 1.185 0)
(0.845034 2.22484 0)
(0.804599 2.17451 0)
(0.29074 1.48315 0)
(0.917981 2.16788 0)
(0 0.836716 0)
(1.76154 1.35566 0)
(0 1.0543 0)
(0.764265 0.923775 0)
(0.655617 1.968 0)
(1.40301 1.88825 0)
(0.412321 1.64342 0)
(1.00805 2.10444 0)
(0 0.921947 0)
(1.4783 1.23216 0)
(0.568762 1.85108 0)
(1.21339 1.9817 0)
(0 1.01402 0)
(1.04602 1.04522 0)
(0.34759 1.55804 0)
(0.954489 2.14133 0)
(0 0.877901 0)
(1.63423 1.3 0)
(0.663135 1.9782 0)
(1.42336 1.87911 0)
(0.738141 0.912517 0)
(0 1.05733 0)
(0 0.890934 0)
(1.59046 1.28093 0)
(0.366273 1.58267 0)
(0.968527 2.13143 0)
(0.632933 0.867174 0)
(0 1.06842 0)
(0.692537 2.01828 0)
(1.51077 1.84152 0)
(0.720831 2.05715 0)
(1.60869 1.80233 0)
(0 1.07779 0)
(0.526712 0.821375 0)
(0.183947 1.3424 0)
(0.870769 2.20411 0)
(1.97816 1.45116 0)
(0 0.753503 0)
(1.63496 1.79229 0)
(0.727726 2.06667 0)
(0 1.07987 0)
(0.500019 0.809861 0)
(0 1.09695 0)
(0.14943 0.658371 0)
(0 0.643504 0)
(2.20316 1.55203 0)
(0.0549723 1.17175 0)
(0.84402 2.22567 0)
(2.0553 1.65348 0)
(0.810497 2.18295 0)
(0.944849 1.0016 0)
(0 1.03011 0)
(1.27561 1.94926 0)
(0.601198 1.89455 0)
(0.492535 1.74957 0)
(1.09705 2.04795 0)
(1.26729 1.14076 0)
(0 0.971915 0)
(0.466208 1.71468 0)
(1.06462 2.06789 0)
(0 0.956114 0)
(1.33885 1.17172 0)
(0.0407727 0.611277 0)
(0 1.09849 0)
(0 0.607382 0)
(2.26507 1.58026 0)
(0.0149994 1.1186 0)
(0.833272 2.21581 0)
(2.22025 1.6079 0)
(0.84166 2.22761 0)
(0.40319 1.63137 0)
(0.999621 2.11009 0)
(1.50103 1.24203 0)
(0 0.915926 0)
(0.483807 1.738 0)
(1.08591 2.05472 0)
(0 0.966744 0)
(1.29127 1.15113 0)
(1.05445 2.07429 0)
(0.457338 1.70293 0)
(1.36244 1.18193 0)
(0 0.950656 0)
(0.741297 2.08547 0)
(1.68982 1.77192 0)
(0.164252 1.31641 0)
(0.864695 2.20894 0)
(2.01505 1.46755 0)
(0 0.737364 0)
(0.446484 0.786763 0)
(0 1.08369 0)
(0.15438 1.30337 0)
(0.861932 2.21115 0)
(0.747971 2.09474 0)
(2.0332 1.47564 0)
(1.71845 1.7616 0)
(0 0.729183 0)
(0.419649 0.775181 0)
(0 1.08544 0)
(0.365854 0.751955 0)
(0 1.08862 0)
(1.77823 1.74068 0)
(0.761095 2.11306 0)
(0 0.712604 0)
(2.06887 1.49156 0)
(0.856947 2.21515 0)
(0.13459 1.27722 0)
(1.84292 1.3914 0)
(0 0.807577 0)
(0.898006 2.18294 0)
(0.252245 1.43244 0)
(0 1.07092 0)
(0.606466 0.855764 0)
(1.53422 1.83187 0)
(0.699716 2.02812 0)
(0.640385 1.94737 0)
(1.364 1.90622 0)
(0.816281 0.94619 0)
(0 1.04791 0)
(0.338197 1.54566 0)
(0.947831 2.14608 0)
(0 0.871252 0)
(1.65587 1.30944 0)
(0.20368 0.681854 0)
(0 1.09552 0)
(2.17088 1.53741 0)
(0 0.661183 0)
(1.97985 1.67579 0)
(0.846218 2.22387 0)
(0.0749297 1.19823 0)
(0.798621 2.16599 0)
(1.09598 1.06678 0)
(0 1.00536 0)
(1.18486 1.99724 0)
(0.552199 1.82896 0)
(0 1.08708 0)
(0.392771 0.763578 0)
(0.754571 2.10394 0)
(1.74791 1.75118 0)
(2.05114 1.48364 0)
(0 0.72093 0)
(0.85935 2.21322 0)
(0.144492 1.29031 0)
(0.543835 1.8178 0)
(1.17119 2.00484 0)
(0 1.00088 0)
(1.1208 1.07749 0)
(1.14502 2.01968 0)
(0.526943 1.7953 0)
(1.17011 1.09877 0)
(0 0.991619 0)
(1.38589 1.19209 0)
(0 0.945102 0)
(1.04459 2.08057 0)
(0.448423 1.69114 0)
(0.338901 0.740314 0)
(0 1.09004 0)
(0.767544 2.12209 0)
(1.80945 1.73008 0)
(0 0.704207 0)
(2.0864 1.49941 0)
(0.854722 2.21695 0)
(0.124675 1.26411 0)
(0.677972 1.99839 0)
(1.46583 1.86052 0)
(0.685674 0.889906 0)
(0 1.06309 0)
(0 1.07332 0)
(0.579938 0.844327 0)
(1.55834 1.82212 0)
(0.706825 2.03787 0)
(0 0.857694 0)
(1.69865 1.32813 0)
(0.319309 1.52078 0)
(0.935215 2.15519 0)
(0.983558 2.12102 0)
(0.384808 1.60711 0)
(0 0.903611 0)
(1.54606 1.2616 0)
(0.00499998 1.10528 0)
(0 0.598198 0)
(0.0135914 0.599482 0)
(0 1.0986 0)
(2.26465 1.59631 0)
(2.27998 1.5871 0)
(0.841492 2.22775 0)
(0.838759 2.2238 0)
(1.52362 1.25185 0)
(0 0.909814 0)
(0.991458 2.11562 0)
(0.394019 1.61926 0)
(0 1.09794 0)
(0.0951204 0.634843 0)
(0 0.625568 0)
(0.0349929 1.1452 0)
(2.23456 1.56632 0)
(0.822049 2.19955 0)
(2.13533 1.63085 0)
(0.842502 2.22692 0)
(0.193767 1.35535 0)
(0.874084 2.20149 0)
(0 0.761461 0)
(1.95942 1.44285 0)
(0.585097 1.87295 0)
(1.24361 1.9657 0)
(0 1.02227 0)
(0.995632 1.02349 0)
(0.281157 1.47052 0)
(0.912672 2.17184 0)
(0 0.829555 0)
(1.78215 1.3647 0)
(0.213347 1.38117 0)
(0.881281 2.19585 0)
(0 0.777145 0)
(1.92135 1.42599 0)
(0 0.961477 0)
(1.31512 1.16145 0)
(0.475032 1.72637 0)
(1.07511 2.06137 0)
(0.42141 1.65543 0)
(1.01676 2.09866 0)
(1.45541 1.22223 0)
(0 0.927875 0)
(1.21894 1.11986 0)
(0 0.981963 0)
(0.509841 1.77255 0)
(1.12033 2.03406 0)
(0.617059 1.91589 0)
(1.30947 1.93237 0)
(0.893687 0.979549 0)
(0 1.03754 0)
(1.84158 1.7194 0)
(0.773915 2.13104 0)
(0.311914 0.728654 0)
(0 1.09136 0)
(2.10372 1.50717 0)
(0 0.69574 0)
(0.114747 1.25098 0)
(0.852673 2.21861 0)
(1.19892 1.98953 0)
(0.560509 1.84005 0)
(1.07105 1.05602 0)
(0 1.00974 0)
)
;
    }
}


// ************************************************************************* //
