/*--------------------------------*- C++ -*----------------------------------*\
| =========                 |                                                 |
| \\      /  F ield         | OpenFOAM: The Open Source CFD Toolbox           |
|  \\    /   O peration     | Version:  2312                                  |
|   \\  /    A nd           | Website:  www.openfoam.com                      |
|    \\/     M anipulation  |                                                 |
\*---------------------------------------------------------------------------*/
FoamFile
{
    version     2.0;
    format      ascii;
    arch        "LSB;label=32;scalar=64";
    class       volVectorField;
    location    "1";
    object      DDifference;
}
// * * * * * * * * * * * * * * * * * * * * * * * * * * * * * * * * * * * * * //

dimensions      [0 1 0 0 0 0 0];

internalField   nonuniform List<vector> 
26526
(
(-0.462284 -0.164475 0)
(-0.457187 -0.0681116 0)
(-0.407171 -0.0302712 0)
(-0.404393 -0.0280484 0)
(-0.326724 -0.00311772 0)
(-0.332069 0.0106345 0)
(-0.160414 -0.0689365 0)
(-0.159507 0.00711581 0)
(-0.043092 -0.0474313 0)
(-0.0375003 -0.0145812 0)
(-0.0956355 0.0558053 0)
(-0.428014 -0.0306406 0)
(-0.422979 -0.0913863 0)
(-0.416832 -0.0906693 0)
(-0.18006 0.0630031 0)
(-0.184999 0.0627512 0)
(-0.196131 -0.112389 0)
(-0.190048 -0.110194 0)
(-0.118344 -0.0354369 0)
(-0.114493 -0.034532 0)
(-0.453116 -0.155507 0)
(-0.293996 -0.016232 0)
(-0.42236 -0.0308459 0)
(-0.214659 0.0230389 0)
(-0.188776 -0.0663685 0)
(-0.198818 -0.0953475 0)
(-0.0692803 0.0457172 0)
(-0.47786 -0.0404361 0)
(-0.314041 -0.0141682 0)
(-0.273989 -0.125331 0)
(-0.304672 0.0370535 0)
(-0.221211 -0.0547594 0)
(-0.528411 -0.138031 0)
(-0.253593 -0.0625261 0)
(-0.449127 -0.140798 0)
(-0.213047 0.0728859 0)
(-0.162154 -0.102616 0)
(-0.114066 -0.0286131 0)
(-0.125425 -0.0697158 0)
(-0.235052 0.0443668 0)
(-0.107849 -0.00937792 0)
(-0.114177 -0.0239316 0)
(-0.034312 0.0235649 0)
(-0.0197501 -0.00767596 0)
(-0.121017 -0.0680031 0)
(-0.103924 -0.00929792 0)
(-0.379544 -0.0961981 0)
(-0.395746 -0.138516 0)
(-0.32307 -0.138601 0)
(-0.158647 -0.0718898 0)
(-0.0395618 -0.0283019 0)
(-0.0881485 0.027805 0)
(-0.0340444 -0.00592183 0)
(-0.17282 0.0640885 0)
(-0.408036 -0.0914983 0)
(-0.178138 -0.106054 0)
(-0.107715 -0.0327341 0)
(-0.357255 -0.058326 0)
(-0.14691 0.0511312 0)
(-0.186397 -0.103212 0)
(-0.102347 -0.033932 0)
(-0.365871 -0.132583 0)
(-0.363326 -0.133401 0)
(-0.511476 -0.106771 0)
(-0.511953 -0.127081 0)
(-0.280722 -0.136381 0)
(-0.259679 -0.028419 0)
(-0.276153 -0.0310932 0)
(-0.0998135 0.0357695 0)
(-0.107698 0.0375342 0)
(-0.1521 -0.0818057 0)
(-0.162227 -0.086821 0)
(-0.075777 -0.0276528 0)
(-0.0813442 -0.0293875 0)
(-0.318788 -0.137539 0)
(-0.303805 -0.12783 0)
(-0.293114 -0.125092 0)
(-0.128749 0.0612135 0)
(-0.122601 0.0597687 0)
(-0.382961 -0.150381 0)
(-0.397481 -0.149327 0)
(-0.325526 -0.147033 0)
(-0.140703 -0.0683263 0)
(-0.278218 0.0289429 0)
(-0.129853 -0.00136585 0)
(-0.460629 -0.135461 0)
(-0.522821 -0.0919688 0)
(-0.441224 -0.157616 0)
(-0.303064 -0.0953792 0)
(-0.316173 0.0506505 0)
(-0.234463 -0.116846 0)
(-0.182541 -0.0295577 0)
(-0.413963 -0.1532 0)
(-0.401312 0.0119015 0)
(-0.265297 -0.107832 0)
(-0.2392 -0.0189907 0)
(-0.46057 -0.133794 0)
(-0.207119 0.0229462 0)
(-0.0882446 0.00300243 0)
(-0.111085 -0.0501328 0)
(-0.0924841 -0.041984 0)
(-0.0299694 -0.0194391 0)
(-0.0244052 -0.0160478 0)
(-0.0261204 -0.00273874 0)
(-0.0685596 0.0180629 0)
(-0.0565591 0.0152458 0)
(-0.0212867 -0.00233477 0)
(-0.396867 -0.114246 0)
(-0.399924 -0.116049 0)
(-0.165605 -0.000413888 0)
(-0.0636499 0.0154822 0)
(-0.159259 0.000443513 0)
(-0.0610737 0.0145918 0)
(-0.13693 -0.0657202 0)
(-0.133562 -0.0639029 0)
(-0.057548 -0.0242075 0)
(-0.0556101 -0.0235625 0)
(-0.480958 -0.164321 0)
(-0.407143 -0.0560187 0)
(-0.347848 -0.0565741 0)
(-0.141214 0.0506161 0)
(-0.179498 -0.100222 0)
(-0.0980532 -0.0327416 0)
(-0.267299 -0.0309528 0)
(-0.15811 -0.00430009 0)
(-0.059235 0.0174316 0)
(-0.118436 -0.0588765 0)
(-0.051267 -0.0208903 0)
(-0.400654 -0.0413547 0)
(-0.155362 -0.073383 0)
(-0.0317867 -0.0274715 0)
(-0.0281198 -0.00770074 0)
(-0.075289 0.0305401 0)
(-0.291023 -0.061596 0)
(-0.477839 -0.0704478 0)
(-0.300845 -0.0959536 0)
(-0.452837 -0.163043 0)
(-0.312618 -0.130966 0)
(-0.0792618 -0.0605465 0)
(-0.151186 0.0577942 0)
(-0.0643287 -0.0157838 0)
(-0.28011 -0.0706016 0)
(-0.425702 -0.158181 0)
(-0.432767 -0.159107 0)
(-0.0232918 -0.0280516 0)
(-0.161106 -0.0812001 0)
(-0.0227482 -0.00926665 0)
(-0.0646214 0.0350523 0)
(-0.479484 -0.140911 0)
(-0.243258 0.0686736 0)
(-0.197787 -0.11411 0)
(-0.13853 -0.0324832 0)
(-0.407863 -0.0542808 0)
(-0.506227 -0.153127 0)
(-0.504668 -0.154542 0)
(-0.404405 -0.158742 0)
(-0.454131 -0.148593 0)
(-0.480083 -0.0908193 0)
(-0.188653 0.013237 0)
(-0.0773494 0.00826584 0)
(-0.336055 0.0422803 0)
(-0.233297 -0.111476 0)
(-0.190985 -0.0245982 0)
(-0.409084 -0.131633 0)
(-0.406004 -0.130059 0)
(-0.447854 -0.0762053 0)
(-0.394389 -0.074335 0)
(-0.167564 0.0572097 0)
(-0.195256 -0.109573 0)
(-0.112214 -0.0353864 0)
(-0.290362 -0.124265 0)
(-0.265506 0.0160247 0)
(-0.119936 -0.054676 0)
(-0.118062 0.00757641 0)
(-0.3278 -0.0134058 0)
(-0.145947 0.0248562 0)
(-0.271817 -0.124039 0)
(-0.128993 -0.0498125 0)
(-0.501227 -0.0631758 0)
(-0.324305 -0.000776922 0)
(-0.513278 -0.107847 0)
(-0.400605 -0.0432579 0)
(-0.431882 -0.00568129 0)
(-0.269434 -0.0191627 0)
(-0.304583 -0.0135418 0)
(-0.131097 0.0261294 0)
(-0.242311 -0.113428 0)
(-0.114111 -0.0441617 0)
(-0.40647 -0.0170701 0)
(-0.16875 0.0641975 0)
(-0.402464 -0.0908678 0)
(-0.172831 -0.104025 0)
(-0.104478 -0.0319673 0)
(-0.0790336 -0.0283511 0)
(-0.327138 -0.0816409 0)
(-0.335693 0.0428311 0)
(-0.23677 -0.113135 0)
(-0.192393 -0.0258244 0)
(-0.124654 0.0008386 0)
(-0.046535 0.0119551 0)
(-0.103583 -0.05001 0)
(-0.0424232 -0.0181184 0)
(-0.302437 0.0187918 0)
(-0.248788 -0.0702339 0)
(-0.234113 -0.115284 0)
(-0.191411 -0.0836446 0)
(-0.0602694 -0.0347423 0)
(-0.132535 0.0263207 0)
(-0.0535337 -0.00233453 0)
(-0.4347 -0.117949 0)
(-0.522422 -0.152722 0)
(-0.38974 0.00495452 0)
(-0.388213 0.00681125 0)
(-0.208139 -0.000419043 0)
(-0.208137 -0.00178683 0)
(-0.299256 0.0551678 0)
(-0.248421 -0.125378 0)
(-0.181594 -0.0363002 0)
(-0.52052 -0.154054 0)
(-0.0825426 0.0152003 0)
(-0.0317991 -5.40058e-05 0)
(-0.113641 -0.050653 0)
(-0.0354283 -0.0199187 0)
(-0.178451 -0.0290033 0)
(-0.102795 -0.0218665 0)
(-0.0304997 0.0214298 0)
(-0.017364 -0.00678737 0)
(-0.503774 -0.102277 0)
(-0.227134 -0.112215 0)
(-0.0553831 -0.0279038 0)
(-0.0100237 -0.00978675 0)
(-0.0253579 0.0110874 0)
(-0.00928624 -0.00301437 0)
(-0.445209 -0.0667653 0)
(-0.282056 -0.0482218 0)
(-0.104594 0.0465795 0)
(-0.128863 -0.0777236 0)
(-0.0695681 -0.0241829 0)
(-0.456731 -0.163141 0)
(-0.52971 -0.139126 0)
(-0.33503 -0.0156502 0)
(-0.149908 0.0258451 0)
(-0.131508 -0.0502656 0)
(-0.474166 -0.165052 0)
(-0.0749963 -0.0373078 0)
(-0.0134604 -0.0128064 0)
(-0.0341537 0.0147283 0)
(-0.0123257 -0.00386495 0)
(-0.311811 0.0520179 0)
(-0.229403 -0.115655 0)
(-0.171324 -0.0800231 0)
(-0.0360807 -0.0305456 0)
(-0.0830192 0.0331698 0)
(-0.0313869 -0.00834651 0)
(-0.344401 -0.0478307 0)
(-0.142478 0.0458732 0)
(-0.196142 -0.104526 0)
(-0.104201 -0.0355447 0)
(-0.473895 -0.0369307 0)
(-0.308982 -0.0141046 0)
(-0.326585 4.66852e-05 0)
(-0.354239 -0.000245013 0)
(-0.320542 0.0490974 0)
(-0.235439 -0.116289 0)
(-0.184867 -0.028926 0)
(-0.456897 -0.127805 0)
(-0.452926 -0.128373 0)
(-0.0139605 -0.00633194 0)
(-0.00375038 -0.00238256 0)
(-0.00914662 0.00223888 0)
(-0.00325563 -0.000199308 0)
(-0.44894 -0.078468 0)
(-0.504431 -0.0667359 0)
(-0.436686 -0.127615 0)
(-0.194902 0.0729208 0)
(-0.159434 -0.102274 0)
(-0.107395 -0.0294349 0)
(-0.376606 -0.0172786 0)
(-0.526337 -0.117626 0)
(-0.149026 -0.0795578 0)
(-0.266149 0.0449582 0)
(-0.127751 -0.0112153 0)
(-0.44418 -0.0607283 0)
(-0.501493 -0.0633453 0)
(-0.0872117 -0.00889032 0)
(-0.0286991 0.0143864 0)
(-0.0210737 -0.0081662 0)
(-0.0446727 -0.0262211 0)
(-0.113614 -0.0507104 0)
(-0.0339726 -0.019892 0)
(-0.0787453 0.0163376 0)
(-0.0302954 -0.000975191 0)
(-0.261289 -0.0404146 0)
(-0.521886 -0.114129 0)
(-0.496053 -0.113473 0)
(-0.474339 -0.0831018 0)
(-0.447639 -0.0322885 0)
(-0.245321 0.0140758 0)
(-0.221948 -0.0764657 0)
(-0.133784 0.0154006 0)
(-0.137305 0.0165927 0)
(-0.0547589 0.00337287 0)
(-0.0530918 0.00382456 0)
(-0.421466 -0.00925986 0)
(-0.510754 -0.140935 0)
(-0.361605 0.0154894 0)
(-0.258815 -0.057347 0)
(-0.0892562 0.0493328 0)
(-0.0904096 -0.063333 0)
(-0.0523965 -0.018564 0)
(-0.189202 -0.0638094 0)
(-0.27385 -0.0713812 0)
(-0.268696 -0.0704885 0)
(-0.376852 -0.072484 0)
(-0.264314 0.0501655 0)
(-0.26521 0.0510691 0)
(-0.286222 -0.138833 0)
(-0.282893 -0.138025 0)
(-0.183936 -0.0486379 0)
(-0.182851 -0.0478351 0)
(-0.419148 -0.00688993 0)
(-0.3186 0.0260774 0)
(-0.156866 -0.00289041 0)
(-0.169305 -0.0785418 0)
(-0.00363927 -0.00377926 0)
(-0.00234008 -0.00101808 0)
(-0.00478046 0.00420202 0)
(-0.018448 -0.00471729 0)
(-0.0136675 -0.00730055 0)
(-0.00182578 -0.00224491 0)
(-0.00586591 0.00288452 0)
(-0.00188706 -0.000764188 0)
(-0.416805 0.00321549 0)
(-0.44467 -0.151213 0)
(-0.471552 -0.0350166 0)
(-0.308885 -0.0157111 0)
(-0.360715 -0.118421 0)
(-0.335763 0.00633035 0)
(-0.334249 0.00481088 0)
(-0.312921 -0.0914686 0)
(-0.111309 0.0629452 0)
(-0.0874619 -0.0691848 0)
(-0.0573208 -0.0198856 0)
(-0.309971 -0.0431469 0)
(-0.30839 -0.0460447 0)
(-0.120533 0.0458186 0)
(-0.160388 -0.0901534 0)
(-0.0849274 -0.0293839 0)
(-0.316691 0.0250369 0)
(-0.154895 -0.00187138 0)
(-0.166202 -0.0768613 0)
(-0.218553 -0.109163 0)
(-0.288671 -0.138914 0)
(-0.374948 -0.0201162 0)
(-0.3676 -0.0171085 0)
(-0.177353 0.0246601 0)
(-0.17306 0.0234563 0)
(-0.156635 -0.0583251 0)
(-0.154334 -0.0582447 0)
(-0.328656 -0.100429 0)
(-0.093814 -0.0549842 0)
(-0.431306 -0.16302 0)
(-0.497176 -0.116334 0)
(-0.509737 -0.107386 0)
(-0.00232294 -0.00923928 0)
(-0.00473593 -0.00275669 0)
(-0.0143902 0.0144512 0)
(-0.473932 -0.165012 0)
(-0.0228403 -0.0104857 0)
(-0.0061378 -0.0038977 0)
(-0.0148299 0.0036749 0)
(-0.00534051 -0.000402038 0)
(-0.423455 -0.15736 0)
(-0.159751 -0.0709709 0)
(-0.056222 -0.0285012 0)
(-0.0544883 -0.0273504 0)
(-0.153738 -0.0685345 0)
(-0.341816 -0.0874588 0)
(-0.338531 -0.0879466 0)
(-0.289717 -0.100624 0)
(-0.285405 -0.0992772 0)
(-0.504541 -0.152531 0)
(-0.518147 -0.0935023 0)
(-0.516318 -0.0915641 0)
(-0.435546 -0.163415 0)
(-0.0462257 -0.0496142 0)
(-0.0394728 -0.0151075 0)
(-0.0991114 0.0575746 0)
(-0.0890723 -0.052363 0)
(-0.330131 -0.146608 0)
(-0.476125 -0.0992372 0)
(-0.461974 -0.150139 0)
(-0.480884 -0.140449 0)
(-0.480164 -0.142528 0)
(-0.276051 -0.0704095 0)
(-0.400375 -0.159275 0)
(-0.401422 -0.159487 0)
(-0.508058 -0.154686 0)
(-0.451295 -0.138972 0)
(-0.45294 -0.140126 0)
(-0.448759 -0.154625 0)
(-0.237863 0.067818 0)
(-0.16194 -0.0984917 0)
(-0.122079 -0.025009 0)
(-0.466158 -0.16324 0)
(-0.460161 -0.163065 0)
(-0.34225 -0.0099952 0)
(-0.375957 -0.100775 0)
(-0.518013 -0.126987 0)
(-0.435333 -0.0144309 0)
(-0.441021 -0.0170237 0)
(-0.255949 -0.00193981 0)
(-0.249399 -0.0011025 0)
(-0.0501672 0.00715373 0)
(-0.0187105 0.00140869 0)
(-0.496983 -0.0673259 0)
(-0.327773 -0.0319315 0)
(-0.138173 0.0371221 0)
(-0.109412 -0.0392468 0)
(-0.148277 -0.0675848 0)
(-0.036192 -0.0263114 0)
(-0.0814402 0.0263638 0)
(-0.0311896 -0.00566547 0)
(-0.369566 0.0236996 0)
(-0.251341 -0.0443292 0)
(-0.270009 -0.114417 0)
(-0.198067 0.0316204 0)
(-0.0947082 -0.0508947 0)
(-0.0852024 -0.00232308 0)
(-0.488024 -0.11549 0)
(-0.492059 -0.117968 0)
(-0.515283 -0.0805834 0)
(-0.512899 -0.0776743 0)
(-0.384403 -0.0589377 0)
(-0.166107 0.0496523 0)
(-0.217381 -0.114628 0)
(-0.119699 -0.0392063 0)
(-0.413478 0.0030597 0)
(-0.241868 -0.0122694 0)
(-0.256457 -0.100855 0)
(-0.446733 -0.150186 0)
(-0.355632 -0.0195851 0)
(-0.46015 -0.164787 0)
(-0.454111 -0.164634 0)
(-0.443128 -0.140004 0)
(-0.207145 0.0733175 0)
(-0.156326 -0.100638 0)
(-0.109935 -0.0280727 0)
(-0.398124 -0.157478 0)
(-0.159487 -0.0174953 0)
(-0.164026 -0.0174525 0)
(-0.0555123 0.0250492 0)
(-0.0575777 0.025324 0)
(-0.0845744 -0.0484043 0)
(-0.0888398 -0.050307 0)
(-0.04047 -0.0152932 0)
(-0.041754 -0.0158056 0)
(-0.37214 -0.0996654 0)
(-0.508233 -0.158171 0)
(-0.459847 -0.0556561 0)
(-0.493925 -0.102153 0)
(-0.320806 -0.0497592 0)
(-0.126617 0.0476093 0)
(-0.16533 -0.0930645 0)
(-0.0885323 -0.0302651 0)
(-0.506671 -0.126068 0)
(-0.101079 -0.0102582 0)
(-0.0337006 0.0164168 0)
(-0.024865 -0.00960718 0)
(-0.0526606 -0.0306163 0)
(-0.248936 0.0628044 0)
(-0.233468 -0.125493 0)
(-0.155716 -0.0390995 0)
(-0.487605 -0.164231 0)
(-0.187057 0.0729673 0)
(-0.12559 -0.0880873 0)
(-0.0918926 -0.0241092 0)
(-0.466518 -0.032375 0)
(-0.393633 -0.155309 0)
(-0.509066 -0.109576 0)
(-0.109251 -0.0210015 0)
(-0.0332696 0.0219624 0)
(-0.019925 -0.00766051 0)
(-0.52205 -0.139758 0)
(-0.333895 0.0414299 0)
(-0.215153 -0.0406001 0)
(-0.110551 -0.0179672 0)
(-0.0348059 0.0209423 0)
(-0.0430855 -0.0289659 0)
(-0.022384 -0.00851707 0)
(-0.463525 -0.0665558 0)
(-0.465287 -0.0647446 0)
(-0.466307 -0.031733 0)
(-0.406771 -0.0910945 0)
(-0.269881 -0.114442 0)
(-0.0847211 -0.0510058 0)
(-0.171857 0.0392133 0)
(-0.0729732 -0.00716657 0)
(-0.346372 -0.0107159 0)
(-0.47331 -0.162031 0)
(-0.478433 -0.15393 0)
(-0.380412 -0.149104 0)
(-0.484198 -0.164552 0)
(-0.0393415 0.0335142 0)
(-0.388739 0.0161125 0)
(-0.211424 -0.0943535 0)
(-0.0527829 -0.0386567 0)
(-0.112877 0.0376638 0)
(-0.0447967 -0.00881468 0)
(-0.410681 -0.0356376 0)
(-0.118689 -0.0529397 0)
(-0.0387338 -0.0208352 0)
(-0.523618 -0.139611 0)
(-0.343414 -0.144331 0)
(-0.12982 -0.0828845 0)
(-0.215601 0.0633526 0)
(-0.102297 -0.019524 0)
(-0.171408 -0.0048779 0)
(-0.064947 0.0185757 0)
(-0.129121 -0.0638873 0)
(-0.0562295 -0.0228462 0)
(-0.310323 -0.0980753 0)
(-0.0931985 0.0102129 0)
(-0.035658 0.00369621 0)
(-0.0821919 0.00911225 0)
(-0.0311682 0.00338411 0)
(-0.438758 -0.117179 0)
(-0.43948 -0.115382 0)
(-0.353729 0.0356443 0)
(-0.248216 -0.11367 0)
(-0.20601 -0.0252585 0)
(-0.410197 -0.0132517 0)
(-0.214459 0.0107067 0)
(-0.203644 -0.0767755 0)
(-0.348677 0.0127346 0)
(-0.497269 -0.161425 0)
(-0.494244 -0.162249 0)
(-0.318677 -0.109437 0)
(-0.154995 -0.092134 0)
(-0.121768 -0.0212067 0)
(-0.14994 -0.0664187 0)
(-0.0503454 -0.0266706 0)
(-0.34786 -0.144503 0)
(-0.376091 0.0235403 0)
(-0.244997 -0.106242 0)
(-0.215651 -0.0182453 0)
(-0.211639 -0.000877842 0)
(-0.0847857 0.0179529 0)
(-0.196216 0.000531539 0)
(-0.0778203 0.0165029 0)
(-0.17947 -0.0845844 0)
(-0.168524 -0.0793989 0)
(-0.0770894 -0.0321459 0)
(-0.07129 -0.0300619 0)
(-0.352103 -0.0652557 0)
(-0.281048 -0.0919733 0)
(-0.534637 -0.12984 0)
(-0.534337 -0.12895 0)
(-0.501278 -0.16193 0)
(-0.419118 -0.159301 0)
(-0.522759 -0.0914408 0)
(-0.300948 0.0387993 0)
(-0.217073 -0.0538882 0)
(-0.322741 0.041985 0)
(-0.20503 -0.10046 0)
(-0.172265 -0.0177411 0)
(-0.392424 -0.153655 0)
(-0.269887 -0.0548708 0)
(-0.425773 -0.102941 0)
(-0.297936 0.0190255 0)
(-0.246202 -0.0706146 0)
(-0.414732 -0.123119 0)
(-0.45803 -0.132305 0)
(-0.462359 -0.148596 0)
(-0.372861 -0.0722749 0)
(-0.0293679 -0.000297324 0)
(-0.0765395 0.0146223 0)
(-0.106482 -0.0475981 0)
(-0.0326159 -0.0185882 0)
(-0.450025 -0.164505 0)
(-0.44902 -0.164432 0)
(-0.0808079 -0.028749 0)
(-0.101515 -0.0487619 0)
(-0.0203965 -0.0175284 0)
(-0.293202 -0.0176812 0)
(-0.00300977 -0.014115 0)
(-0.00752183 -0.00458951 0)
(-0.0844796 -0.0508982 0)
(-0.0245486 0.0222335 0)
(-0.247963 -0.107001 0)
(-0.071074 -0.0463216 0)
(-0.146135 0.0398906 0)
(-0.0604444 -0.00837788 0)
(-0.335895 -0.034708 0)
(-0.142357 0.0383945 0)
(-0.220966 -0.110729 0)
(-0.11178 -0.0396888 0)
(-0.182044 -0.079775 0)
(-0.0584263 -0.0328782 0)
(-0.130371 0.0240393 0)
(-0.0524213 -0.00124721 0)
(-0.458481 -0.0244424 0)
(-0.45619 -0.0227062 0)
(-0.458376 -0.14275 0)
(-0.0787051 0.0140186 0)
(-0.0301916 0.000235507 0)
(-0.106754 -0.0477104 0)
(-0.0334676 -0.0186482 0)
(-0.00130217 -0.00277 0)
(-0.00143351 -0.000740453 0)
(-0.000624161 -0.00221067 0)
(-0.0139249 -0.008908 0)
(-0.016204 -0.00591038 0)
(-0.00381437 0.00395137 0)
(-0.00138436 -0.00086463 0)
(-0.00474418 0.00300994 0)
(-0.244241 0.063236 0)
(-0.230824 -0.124874 0)
(-0.152949 -0.0389903 0)
(-0.412437 -0.0342371 0)
(-0.0304481 -0.0360984 0)
(-0.0272394 -0.0335271 0)
(-0.202791 -0.0979099 0)
(-0.190046 -0.0935041 0)
(-0.0287317 -0.0116166 0)
(-0.026362 -0.0109617 0)
(-0.0786567 0.0443702 0)
(-0.0734015 0.0418871 0)
(-0.0245285 -0.0350901 0)
(-0.0248214 -0.0113832 0)
(-0.235749 -0.102365 0)
(-0.0669022 -0.043833 0)
(-0.138933 0.0381562 0)
(-0.0569574 -0.00787546 0)
(-0.305529 -0.0253906 0)
(-0.127024 0.0337292 0)
(-0.209989 -0.10428 0)
(-0.102792 -0.0378504 0)
(-0.0650713 -0.0520672 0)
(-0.494207 -0.0861259 0)
(-0.526784 -0.115889 0)
(-0.391895 -0.154656 0)
(-0.386809 -0.152141 0)
(-0.492566 -0.130813 0)
(-0.176579 0.0174886 0)
(-0.0724615 0.00516518 0)
(-0.358279 0.02806 0)
(-0.243623 -0.0454207 0)
(-0.379009 0.0211449 0)
(-0.315497 -0.130115 0)
(-0.253133 -0.040745 0)
(-0.38011 -0.0192615 0)
(-0.384548 -0.102721 0)
(-0.380308 -0.100424 0)
(-0.358088 0.0316566 0)
(-0.233714 -0.0400557 0)
(-0.293006 -0.0752099 0)
(-0.00431464 0.00199047 0)
(-0.013283 -0.000772066 0)
(-0.00343727 -0.00139065 0)
(-0.0079961 -0.00441082 0)
(-0.408795 -0.0816393 0)
(-0.140342 -0.0469088 0)
(-0.0400633 0.0329358 0)
(-0.356012 0.000797988 0)
(-0.134583 -0.0613483 0)
(-0.0506154 -0.0237246 0)
(-0.129823 0.00934681 0)
(-0.050467 0.00718833 0)
(-0.415763 -0.0351669 0)
(-0.266937 0.0330952 0)
(-0.00215143 -0.00491009 0)
(-0.00258345 -0.00136683 0)
(-0.00103489 -0.00389479 0)
(-0.0243926 -0.0159957 0)
(-0.029084 -0.0111199 0)
(-0.00695731 0.00720751 0)
(-0.00245433 -0.00158261 0)
(-0.00856087 0.00560073 0)
(-0.412316 -0.00565002 0)
(-0.531299 -0.108513 0)
(-0.531137 -0.108388 0)
(-0.31444 -0.109273 0)
(-0.321753 -0.133826 0)
(-0.512507 -0.0766812 0)
(-0.429955 -0.121591 0)
(-0.426613 -0.120346 0)
(-0.412376 -0.0821371 0)
(-0.392818 -0.149081 0)
(-0.27042 -0.11756 0)
(-0.0661676 -0.050969 0)
(-0.134068 0.0500467 0)
(-0.0549932 -0.0130228 0)
(-0.353856 0.0361963 0)
(-0.257045 -0.117286 0)
(-0.210219 -0.0280839 0)
(-0.12669 -0.0569988 0)
(-0.0343253 -0.0223182 0)
(-0.0777984 0.0205799 0)
(-0.0298716 -0.00324503 0)
(-0.326971 0.0171528 0)
(-0.158761 0.00285535 0)
(-0.164523 -0.0729599 0)
(-0.345866 -0.00670729 0)
(-0.161537 0.0185617 0)
(-0.149707 -0.0592869 0)
(-0.422565 -0.130212 0)
(-0.490756 -0.122932 0)
(-0.0533199 0.00793345 0)
(-0.0199673 0.0012747 0)
(-0.522011 -0.152957 0)
(-0.378686 -0.0858974 0)
(-0.151985 0.0632674 0)
(-0.154712 -0.096441 0)
(-0.0925989 -0.0292342 0)
(-0.30838 -0.0232054 0)
(-0.129584 0.0323135 0)
(-0.106554 -0.0395404 0)
(-0.327438 0.0412699 0)
(-0.209967 -0.102027 0)
(-0.176571 -0.0184717 0)
(-0.323001 -0.081582 0)
(-0.505595 -0.155312 0)
(-0.517473 -0.155845 0)
(-0.530232 -0.109721 0)
(-0.499547 -0.0612845 0)
(-0.244468 0.0623773 0)
(-0.457229 -0.0656279 0)
(-0.451801 -0.154769 0)
(-0.475786 -0.101208 0)
(-0.390654 -0.0428864 0)
(-0.412279 -0.00408133 0)
(-0.414816 -0.00451988 0)
(-0.385436 0.014528 0)
(-0.453682 -0.0376322 0)
(-0.248057 0.0168008 0)
(-0.220428 -0.0743276 0)
(-0.48297 -0.125777 0)
(-0.236908 0.0669427 0)
(-0.218535 -0.121306 0)
(-0.142272 -0.0358607 0)
(-0.144209 -0.0725021 0)
(-0.2745 0.0349007 0)
(-0.129459 -0.00511069 0)
(-0.486814 -0.121113 0)
(-0.293332 -0.0576729 0)
(-0.451589 -0.0684181 0)
(-0.31358 -0.0934207 0)
(-0.111497 0.0634084 0)
(-0.0856898 -0.0687125 0)
(-0.0567492 -0.0197005 0)
(-0.376767 -0.0709547 0)
(-0.22505 0.0597587 0)
(-0.217867 -0.0952005 0)
(-0.0717486 0.0500536 0)
(-0.527098 -0.100045 0)
(-0.361098 -0.145758 0)
(-0.46074 -0.0967939 0)
(-0.518745 -0.132566 0)
(-0.268177 -0.045667 0)
(-0.497155 -0.0690872 0)
(-0.417066 0.00240001 0)
(-0.249308 -0.0153923 0)
(-0.272165 -0.0936549 0)
(-0.175413 0.0175201 0)
(-0.421121 -0.0121193 0)
(-0.229713 0.0050217 0)
(-0.223523 -0.0837585 0)
(-0.51128 -0.0770349 0)
(-0.468156 -0.162027 0)
(-0.329096 -0.101832 0)
(-0.26273 -0.0598791 0)
(-0.0905456 0.0504293 0)
(-0.089664 -0.0636362 0)
(-0.0525143 -0.0185576 0)
(-0.469101 -0.113561 0)
(-0.259011 -0.0933892 0)
(-0.25756 -0.0942587 0)
(-0.487284 -0.13935 0)
(-0.484154 -0.138821 0)
(-0.106207 0.0318364 0)
(-0.266732 -0.0216343 0)
(-0.0853088 -0.0319087 0)
(-0.484463 -0.0944154 0)
(-0.372559 -0.1512 0)
(-0.230024 0.0602977 0)
(-0.375968 -0.1433 0)
(-0.371685 -0.142257 0)
(-0.520815 -0.111143 0)
(-0.411349 0.00342013 0)
(-0.238055 -0.0107848 0)
(-0.251606 -0.0993422 0)
(-0.35655 -0.0385811 0)
(-0.154728 0.0394927 0)
(-0.23498 -0.116735 0)
(-0.121334 -0.042413 0)
(-0.530383 -0.111591 0)
(-0.0894399 -0.0433874 0)
(-0.0175179 -0.0154099 0)
(-0.277136 -0.10669 0)
(-0.399492 -0.139383 0)
(-0.281008 -0.107031 0)
(-0.514988 -0.0857699 0)
(-0.401956 -0.158648 0)
(-0.359229 0.0189304 0)
(-0.520182 -0.131073 0)
(-0.0504451 -0.0333471 0)
(-0.309926 -0.0416002 0)
(-0.410895 -0.156111 0)
(-0.299686 0.0528756 0)
(-0.294008 0.0538705 0)
(-0.201533 -0.105018 0)
(-0.195638 -0.103235 0)
(-0.161402 -0.0231767 0)
(-0.156709 -0.0225762 0)
(-0.499019 -0.158141 0)
(-0.494881 -0.15922 0)
(-0.299461 0.00787464 0)
(-0.13594 0.0118242 0)
(-0.133151 -0.0572425 0)
(-0.470624 -0.115696 0)
(-0.28711 -0.131835 0)
(-0.417202 -0.100164 0)
(-0.178253 0.0668161 0)
(-0.174102 -0.105693 0)
(-0.107922 -0.0321135 0)
(-0.418295 -0.153133 0)
(-0.431882 -0.0602132 0)
(-0.430765 -0.0578892 0)
(-0.428961 -0.104691 0)
(-0.375101 0.0226056 0)
(-0.316004 -0.131161 0)
(-0.251216 -0.0416166 0)
(-0.330494 0.0285203 0)
(-0.242824 -0.0564186 0)
(-0.382175 -0.0984751 0)
(-0.201417 -0.111053 0)
(-0.481409 -0.154615 0)
(-0.485774 -0.128067 0)
(-0.219801 -0.121563 0)
(-0.51968 -0.154642 0)
(-0.463854 -0.119241 0)
(-0.379051 -0.0513405 0)
(-0.165398 0.0455939 0)
(-0.22929 -0.117317 0)
(-0.123631 -0.0413774 0)
(-0.484948 -0.154162 0)
(-0.00269636 -0.0142128 0)
(-0.00761977 -0.00474472 0)
(-0.0877566 -0.0515146 0)
(-0.0254664 0.0224773 0)
(-0.483074 -0.123961 0)
(-0.408236 -0.118995 0)
(-0.175696 -0.0772257 0)
(-0.165948 -0.0730855 0)
(-0.0590735 -0.0316183 0)
(-0.0548987 -0.0297446 0)
(-0.17815 0.0165105 0)
(-0.0730696 0.00577157 0)
(-0.509068 -0.116935 0)
(-0.26217 0.0653271 0)
(-0.193034 -0.109471 0)
(-0.143334 -0.0287513 0)
(-0.264394 -0.00416164 0)
(-0.111101 0.0208168 0)
(-0.224664 -0.104149 0)
(-0.100435 -0.0408506 0)
(-0.44622 -0.0692813 0)
(-0.450264 -0.135663 0)
(-0.459379 -0.0535357 0)
(-0.0360762 -0.0169912 0)
(-0.0133081 -0.00614372 0)
(-0.037783 0.00233706 0)
(-0.0135854 0.00293309 0)
(-0.0354962 0.0309257 0)
(-0.476535 -0.143689 0)
(-0.475774 -0.163434 0)
(-0.182044 -0.040247 0)
(-0.0578692 0.0367118 0)
(-0.0569242 -0.0428878 0)
(-0.033154 -0.0124126 0)
(-0.0927522 -0.0469339 0)
(-0.0151678 -0.0152815 0)
(-0.0413868 0.0193138 0)
(-0.0141576 -0.00480648 0)
(-0.0666553 -0.0617184 0)
(-0.314151 -0.124084 0)
(-0.12125 0.0654998 0)
(-0.0522629 -0.0180396 0)
(-0.122721 0.00959983 0)
(-0.0475385 0.00649048 0)
(-0.464658 -0.0443842 0)
(-0.257824 0.0177988 0)
(-0.225503 -0.0737287 0)
(-0.364677 -0.152114 0)
(-0.495891 -0.0838892 0)
(-0.434579 -0.0364362 0)
(-0.439082 -0.0390178 0)
(-0.425231 -0.13187 0)
(-0.00112184 -0.00701588 0)
(-0.00345368 -0.00210526 0)
(-0.0392426 -0.0271471 0)
(-0.0110356 0.0113175 0)
(-0.399528 -0.15147 0)
(-0.152801 -0.051932 0)
(-0.0443339 0.0358592 0)
(-0.47046 -0.163564 0)
(-0.339995 0.0329759 0)
(-0.235143 -0.0487452 0)
(-0.321153 -0.12533 0)
(-0.319753 -0.12637 0)
(-0.420757 -0.159466 0)
(-0.457733 -0.1368 0)
(-0.195416 0.0208151 0)
(-0.386585 0.0180142 0)
(-0.314509 -0.128 0)
(-0.256897 -0.0390121 0)
(-0.270596 -0.0583097 0)
(-0.44896 -0.0202523 0)
(-0.267889 -0.00504578 0)
(-0.452238 -0.0707932 0)
(-0.134254 -0.0602447 0)
(-0.047632 -0.0236889 0)
(-0.359865 -0.03621 0)
(-0.475222 -0.136327 0)
(-0.235435 0.0693306 0)
(-0.196139 -0.114114 0)
(-0.135244 -0.0329813 0)
(-0.534867 -0.123637 0)
(-0.0288369 -0.0390594 0)
(-0.0272093 -0.0121686 0)
(-0.225364 -0.111012 0)
(-0.475026 -0.0675909 0)
(-0.457714 -0.151246 0)
(-0.4762 -0.164422 0)
(-0.438002 -0.0764827 0)
(-0.325246 -0.147075 0)
(-0.52356 -0.101728 0)
(-0.318799 0.039402 0)
(-0.312721 -0.140847 0)
(-0.220726 -0.049417 0)
(-0.368507 -0.111731 0)
(-0.316859 -0.0611834 0)
(-0.516263 -0.124575 0)
(-0.445116 -0.0850014 0)
(-0.444681 -0.0824631 0)
(-0.0673208 -0.0540916 0)
(-0.0854253 -0.038718 0)
(-0.0294899 -0.0147936 0)
(-0.458402 -0.0655608 0)
(-0.17654 -0.0852633 0)
(-0.286781 -0.12175 0)
(-0.07951 -0.0547085 0)
(-0.156666 0.0485801 0)
(-0.0661578 -0.0119759 0)
(-0.0421263 -0.0210208 0)
(-0.119826 -0.0539426 0)
(-0.287275 -0.0601131 0)
(-0.364816 -0.112111 0)
(-0.280181 -0.104468 0)
(-0.274955 -0.103163 0)
(-0.0983648 0.00417649 0)
(-0.0367221 0.00777118 0)
(-0.0910438 -0.0428399 0)
(-0.0352017 -0.0158084 0)
(-0.373143 -0.0217542 0)
(-0.175032 0.0261582 0)
(-0.152994 -0.0566256 0)
(-0.23618 -0.105169 0)
(-0.431765 -0.156766 0)
(-0.190444 0.0208954 0)
(-0.420398 -0.0316253 0)
(-0.211864 0.0242273 0)
(-0.185176 -0.0650267 0)
(-0.277944 -0.10347 0)
(-0.0543302 -0.0547743 0)
(-0.0958915 0.0606913 0)
(-0.0418172 -0.0160483 0)
(-0.454653 -0.0726784 0)
(-0.119813 -0.0220347 0)
(-0.0372074 0.0235485 0)
(-0.0424519 -0.0300978 0)
(-0.0228331 -0.00869607 0)
(-0.29971 -0.127265 0)
(-0.0738939 -0.0575202 0)
(-0.144001 0.0560063 0)
(-0.0604188 -0.0151308 0)
(-0.314399 -0.0984575 0)
(-0.522179 -0.150921 0)
(-0.392275 -0.0993557 0)
(-0.400147 -0.103544 0)
(-0.159963 0.067689 0)
(-0.165253 0.0687542 0)
(-0.148844 -0.0961677 0)
(-0.151193 -0.0975705 0)
(-0.0929129 -0.0285585 0)
(-0.095343 -0.0289008 0)
(-0.182731 0.0731879 0)
(-0.123117 -0.0873727 0)
(-0.0896751 -0.0240648 0)
(-0.33743 -0.137491 0)
(-0.333444 -0.136532 0)
(-0.165022 0.0610047 0)
(-0.164704 0.0599636 0)
(-0.0902371 -0.0665623 0)
(-0.0893968 -0.0655689 0)
(-0.0722225 -0.0170983 0)
(-0.0718316 -0.0166734 0)
(-0.497338 -0.113375 0)
(-0.386254 -0.150396 0)
(-0.194678 -0.0850079 0)
(-0.0607749 -0.0353848 0)
(-0.13303 0.0272086 0)
(-0.0537788 -0.00275342 0)
(-0.0631945 0.0139141 0)
(-0.163209 0.00198465 0)
(-0.141678 -0.0670121 0)
(-0.0584268 -0.0250584 0)
(-0.415252 -0.00803159 0)
(-0.387824 -0.104631 0)
(-0.155938 0.0692616 0)
(-0.136725 -0.0920735 0)
(-0.0872748 -0.0269272 0)
(-0.46281 -0.0338511 0)
(-0.210628 0.00777768 0)
(-0.0866428 0.0124532 0)
(-0.205154 -0.0928187 0)
(-0.0838495 -0.0371281 0)
(-0.260612 0.0632707 0)
(-0.230099 -0.123845 0)
(-0.15834 -0.0371858 0)
(-0.44076 -0.135591 0)
(-0.399599 -0.03096 0)
(-0.192331 0.0286851 0)
(-0.164319 -0.0583731 0)
(-0.521865 -0.109913 0)
(-0.343865 0.0288783 0)
(-0.348442 0.0280427 0)
(-0.352222 -0.105757 0)
(-0.29725 0.0560862 0)
(-0.243463 -0.123957 0)
(-0.178549 -0.0353986 0)
(-0.12575 -0.0203634 0)
(-0.0401837 0.0235304 0)
(-0.0500377 -0.0332154 0)
(-0.0260029 -0.00983476 0)
(-0.245313 0.0687053 0)
(-0.25074 0.067656 0)
(-0.183139 -0.107839 0)
(-0.185319 -0.107945 0)
(-0.13322 -0.0290686 0)
(-0.136011 -0.0287532 0)
(-0.283553 -0.0271903 0)
(-0.318543 0.0337252 0)
(-0.230748 -0.0547211 0)
(-0.331571 -0.083508 0)
(-0.421209 -0.0854281 0)
(-0.418404 -0.0861774 0)
(-0.514685 -0.110596 0)
(-0.367239 0.0237971 0)
(-0.252059 -0.0459626 0)
(-0.339622 -0.100303 0)
(-0.12566 0.0666686 0)
(-0.0988825 -0.0756829 0)
(-0.0651739 -0.0217619 0)
(-0.496361 -0.132729 0)
(-0.0878112 -0.0165142 0)
(-0.0263545 0.0177218 0)
(-0.0158676 -0.0061502 0)
(-0.239888 0.0669875 0)
(-0.143256 -0.0355847 0)
(-0.22992 0.0539417 0)
(-0.130474 -0.0772353 0)
(-0.107548 -0.0147753 0)
(-0.3648 -0.0692313 0)
(-0.362505 -0.0702399 0)
(-0.163687 -0.0753158 0)
(-0.0374795 -0.0291845 0)
(-0.0845835 0.030353 0)
(-0.0323095 -0.00718181 0)
(-0.0148333 -0.00715801 0)
(-0.00291106 -0.00247306 0)
(-0.00754473 0.00277818 0)
(-0.00262489 -0.00062177 0)
(-0.382935 -0.149496 0)
(-0.314113 0.0345689 0)
(-0.228129 -0.0549894 0)
(-0.273078 -0.0561701 0)
(-0.349041 -0.00958781 0)
(-0.0822854 0.0141636 0)
(-0.203292 0.00474274 0)
(-0.18822 -0.0865342 0)
(-0.0779346 -0.0338539 0)
(-0.402787 -0.0249315 0)
(-0.198735 0.0232151 0)
(-0.175972 -0.0638127 0)
(-0.504194 -0.147847 0)
(-0.437045 -0.0739269 0)
(-0.139082 -0.0617331 0)
(-0.0459186 -0.0246287 0)
(-0.459424 -0.094497 0)
(-0.374467 -0.144533 0)
(-0.429083 -0.00378141 0)
(-0.269131 -0.0208992 0)
(-0.428396 -0.115656 0)
(-0.34594 -0.0358662 0)
(-0.14858 0.0385154 0)
(-0.230439 -0.114517 0)
(-0.117089 -0.0413657 0)
(-0.279093 -0.0233116 0)
(-0.273949 -0.0229998 0)
(-0.370558 -0.154058 0)
(-0.365244 -0.153241 0)
(-0.523505 -0.0972491 0)
(-0.39018 -0.103197 0)
(-0.157694 0.0688542 0)
(-0.14099 -0.0935804 0)
(-0.0893494 -0.0274971 0)
(-0.246984 0.0610801 0)
(-0.251671 0.0607263 0)
(-0.241606 -0.127847 0)
(-0.243677 -0.128325 0)
(-0.158091 -0.0407236 0)
(-0.16075 -0.0407785 0)
(-0.37709 -0.150762 0)
(-0.31677 -0.125705 0)
(-0.0679845 -0.0622297 0)
(-0.123935 0.0656059 0)
(-0.0534001 -0.0181373 0)
(-0.172648 0.0185515 0)
(-0.255342 -0.109234 0)
(-0.266976 -0.11359 0)
(-0.206098 0.0284072 0)
(-0.19873 0.0270846 0)
(-0.0888684 -0.000154407 0)
(-0.0849398 0.000375355 0)
(-0.0968874 -0.0501847 0)
(-0.092294 -0.0477547 0)
(-0.372298 0.0278878 0)
(-0.276918 -0.120112 0)
(-0.229254 -0.0302042 0)
(-0.329471 -0.0838619 0)
(-0.121517 0.061973 0)
(-0.110931 -0.0782045 0)
(-0.0683169 -0.0228485 0)
(-0.320042 -0.128976 0)
(-0.332706 -0.103306 0)
(-0.245865 0.0604175 0)
(-0.244183 -0.128546 0)
(-0.158737 -0.0413221 0)
(-0.340697 -0.133494 0)
(-9.73447e-05 -0.00671911 0)
(-0.0036272 -0.00262532 0)
(-0.0496317 -0.0247672 0)
(-0.0141951 0.0108686 0)
(-0.246166 0.0344946 0)
(-0.322152 -0.0514568 0)
(-0.126784 0.0485319 0)
(-0.162851 -0.0924872 0)
(-0.0877224 -0.0298856 0)
(-0.346058 0.014296 0)
(-0.339936 0.0163876 0)
(-0.172514 0.00221672 0)
(-0.168573 0.00160692 0)
(-0.178103 -0.0771652 0)
(-0.175202 -0.0768395 0)
(-0.134391 -0.0848804 0)
(-0.220329 0.0637011 0)
(-0.105586 -0.0200239 0)
(-0.453175 -0.067219 0)
(-0.324505 -0.13625 0)
(-0.333521 -0.142847 0)
(-0.333279 -0.143457 0)
(-0.404605 -0.0241326 0)
(-0.200454 0.0220288 0)
(-0.179106 -0.0650591 0)