/*--------------------------------*- C++ -*----------------------------------*\
| =========                 |                                                 |
| \\      /  F ield         | OpenFOAM: The Open Source CFD Toolbox           |
|  \\    /   O peration     | Version:  2312                                  |
|   \\  /    A nd           | Website:  www.openfoam.com                      |
|    \\/     M anipulation  |                                                 |
\*---------------------------------------------------------------------------*/
FoamFile
{
    version     2.0;
    format      ascii;
    arch        "LSB;label=32;scalar=64";
    class       volScalarField;
    location    "1";
    object      epsilonEq;
}
// * * * * * * * * * * * * * * * * * * * * * * * * * * * * * * * * * * * * * //

dimensions      [0 0 0 0 0 0 0];

internalField   nonuniform List<scalar> 
26526
(
0.772927
1.04371
1.02087
1.0115
1.00023
0.920501
1.47678
0.933986
1.45264
1.06891
0.721199
0.993715
1.17487
1.23144
0.808014
0.813377
1.18891
1.17734
1.23126
1.24147
1.08937
1.03035
0.913396
0.930633
1.36804
1.07349
0.750865
0.873518
1.0223
0.913633
0.899343
1.19501
0.927142
1.20994
0.823341
0.722063
1.39215
1.09795
1.55826
0.848984
0.957284
2.5966
0.770289
1.35647
1.56091
0.95903
1.19749
1.23516
0.861301
0.669625
1.62462
1.12143
0.964046
0.801319
1.25762
1.18478
1.2329
1.40818
0.832003
1.06327
1.31744
1.27564
1.28019
1.00098
1.01121
1.12168
1.66937
1.61443
0.831194
0.831094
0.935919
0.956811
1.40594
1.39871
0.876623
0.665635
0.664211
0.735572
0.749861
1.2007
1.203
1.18032
1.52916
0.908578
0.939545
1.13657
0.887618
0.617415
1.29689
0.767941
1.42221
1.05571
1.15756
0.79344
1.39017
1.02885
1.12976
1.13793
0.908306
0.745646
0.77547
1.63982
1.64307
0.944908
1.28472
1.31335
0.944862
1.22133
1.21601
1.61624
0.849391
1.65226
0.846007
0.826387
0.829486
1.52802
1.53373
0.764964
1.07985
1.46093
0.828714
1.04675
1.3281
1.06435
1.75087
0.834796
0.83978
1.51259
1.052
0.682368
1.60669
0.993889
1.05424
1.17199
1.01151
1.3011
0.98666
0.536725
1.55203
0.790526
1.00978
1.22306
0.625688
0.632262
1.5385
0.704062
1.03346
0.934295
0.800925
0.751108
1.3713
1.11
1.07663
0.961094
0.967653
0.872122
1.12037
0.941012
1.32258
0.884722
0.763832
1.43734
1.03446
1.21441
1.22478
1.05619
1.29082
0.823746
1.12555
1.27535
0.767657
1.07992
1.52666
0.909184
1.17153
0.888347
0.901197
1.44112
0.873626
0.990813
0.989388
1.0548
0.825747
1.03478
1.26878
0.876444
0.88932
1.4502
0.982883
0.79762
1.30299
1.17441
1.24023
1.39172
1.21919
0.757109
1.42885
1.03888
1.75659
0.83902
0.827241
1.54806
0.950644
1.26432
0.972134
0.706741
1.61437
1.1858
0.926247
1.16848
0.844687
0.815465
0.810644
0.971272
0.971796
0.793202
1.36856
1.10741
0.852142
1.37205
0.911235
0.757575
1.63218
1.06028
2.70134
0.767047
1.35316
0.875725
0.964306
0.844137
1.60887
1.22503
1.00498
1.05876
1.75806
0.805074
1.01666
1.33891
0.986224
0.823247
1.15079
0.891049
1.43428
0.823544
0.8098
1.60486
1.18982
1.00561
0.754947
1.42181
0.649056
1.60148
1.03722
0.994828
1.42228
0.841157
1.01556
1.35141
0.85964
1.02551
0.992839
0.979084
0.758299
1.41912
1.05789
1.14531
1.14605
0.887179
1.65931
1.52692
0.935289
1.03914
0.867304
0.990466
0.741711
1.3308
1.13768
1.0091
0.829854
1.5345
0.796446
0.967849
1.04704
0.870598
2.34037
0.795681
1.46902
0.866324
0.770436
1.63578
1.35307
0.92173
1.09851
0.844503
0.890442
1.04775
0.857562
0.95842
1.35326
1.38965
1.33504
0.894277
0.889278
0.924572
0.784258
0.927669
1.99214
0.769348
1.05091
1.2989
1.34414
1.22844
1.23685
1.14543
0.866154
0.864048
1.22552
1.24133
1.2154
1.20177
0.913265
0.830534
0.952942
1.49336
0.892616
1.3365
0.766857
3.30404
0.970122
1.58172
1.26059
1.02804
0.843452
1.1335
0.87172
1.02754
1.27433
0.975011
0.975615
1.67264
0.723122
1.19433
1.20983
1.09493
1.58195
0.823174
1.01481
1.35089
0.855137
0.950856
1.50061
0.963615
1.14243
1.03106
1.04234
0.908729
0.908321
1.41
1.41875
1.27338
0.961157
0.922607
0.894163
1.00429
1.08851
1.20201
0.610793
0.804383
0.840224
1.65572
1.47389
0.940365
1.11156
0.743119
1.60191
1.59868
0.772424
1.22246
1.22329
1.33267
1.34196
0.983186
0.932578
0.947401
0.927061
1.43735
1.08066
0.718607
0.981864
1.03838
0.980439
1.10467
1.08266
1.08817
1.22341
0.968398
0.98071
0.947414
1.15006
1.14072
0.664479
0.708467
1.46645
1.04449
0.702825
0.70432
1.01286
1.21578
0.829293
0.812099
0.826157
0.988626
0.989452
1.59213
0.889064
0.94171
1.36023
0.859382
1.39527
0.714297
1.62703
1.15184
0.968901
0.872855
1.1159
0.66555
1.02782
1.58357
0.926996
0.92099
0.89711
0.877385
0.860578
1.26862
0.848346
1.07155
1.31635
0.797344
1.01253
1.38962
1.12778
1.02453
0.906007
0.898435
0.85416
0.722128
1.38239
1.10688
0.871759
2.07717
2.02064
0.805598
0.809765
0.90515
0.893794
1.43369
1.4456
1.22354
0.904543
1.0098
1.04406
1.56927
0.825017
1.01831
1.34548
1.02819
2.26825
0.80223
1.45697
0.879694
0.806762
1.29588
1.16592
0.831771
0.694021
1.43241
1.07949
0.881055
1.14575
1.00646
2.6133
0.773774
1.37467
0.955419
0.834701
1.10903
2.5006
0.783518
0.901122
1.40383
1.02619
1.02592
0.883797
1.15778
0.605583
1.59549
0.982461
0.94747
1.00818
0.68647
0.703426
0.619817
0.826707
0.635822
0.861021
0.617898
1.61074
1.00809
0.973502
1.02453
0.758502
1.62498
0.951521
1.26059
1.52209
0.717147
1.01066
1.70752
0.839672
0.85371
1.50366
1.29478
1.53203
0.880376
1.56603
0.877501
1.16677
1.15832
0.777542
1.42297
1.03687
0.859762
0.951303
1.40001
0.949031
0.894575
0.90138
1.31655
1.50213
1.01518
0.735512
1.61433
1.2635
0.774202
1.4188
1.01849
1.47396
0.859178
1.50511
0.85892
0.826576
0.833396
1.51272
1.51565
1.14528
1.31725
0.849018
0.855314
0.81508
0.749123
0.890182
0.891147
1.20212
0.742824
1.46886
1.006
0.732542
1.15544
1.16428
0.955201
1.26688
1.20067
1.14065
1.1031
1.14816
0.914683
1.39554
0.770956
1.63571
0.872741
0.896806
1.38161
0.744171
1.6164
1.02982
1.24218
1.13949
1.51333
0.640407
0.610946
1.60486
0.984277
0.960817
1.33866
0.861806
0.972351
1.39101
0.700565
1.61567
1.21585
0.918393
0.85433
0.847402
1.12634
1.41911
0.907864
0.784066
1.63116
0.957642
1.25804
1.47766
1.15407
3.51931
0.695613
1.06296
1.13487
0.81261
1.29295
1.16616
1.02498
1.50362
1.51462
0.742115
0.725711
1.05037
1.04385
0.833422
0.854407
1.42024
1.08794
0.610485
1.60887
1.00835
0.955844
1.37946
0.858501
0.948052
1.4122
1.07808
0.899463
0.849817
1.16147
0.728262
1.06886
1.26767
0.894596
0.865919
1.12878
0.855299
1.33176
1.10189
1.01451
1.21194
1.21348
0.845885
1.09875
1.22369
0.80108
2.42144
1.52952
0.863565
1.13974
2.59391
0.689928
0.979565
0.786909
1.58174
1.49895
0.871203
1.01711
0.920398
0.981386
1.25075
1.46807
1.07799
3.36881
0.659773
1.05612
1.08871
0.923291
0.883988
0.883591
1.31879
1.3262
0.889823
1.17717
1.18965
1.13479
1.20348
0.546965
1.57998
0.862845
0.993958
0.784723
1.40872
1.04765
0.745554
1.63597
1.24836
0.944604
0.884898
0.940427
1.49056
1.03459
0.90898
1.44885
1.20066
0.879085
1.55342
0.893087
0.825839
1.41161
0.786402
1.16018
1.24644
1.35267
0.863887
1.42035
0.754682
1.46518
1.00722
1.21835
0.947017
0.825036
0.907971
0.879936
0.714069
1.03822
1.10234
0.962974
1.06323
0.919496
0.917126
0.88259
0.864791
0.952593
1.34677
0.899537
0.784411
1.31087
1.14914
1.53197
0.852094
0.947834
0.906524
1.15247
1.055
1.62472
0.716541
1.21
1.19865
1.14174
0.732728
1.40444
0.681573
0.860104
0.731033
1.10431
0.980961
1.11912
0.945653
0.813358
1.01685
1.3413
0.920341
0.834345
0.967392
1.39149
0.86338
0.687674
1.28466
1.93613
0.765926
1.06772
1.28662
1.10784
1.36047
1.36939
1.07053
1.08479
0.842076
1.55714
1.43108
0.942185
0.846475
0.734962
1.24371
1.25734
0.843526
0.803216
1.00329
1.3978
1.28263
0.863734
0.988782
1.37579
0.909173
0.801799
1.61812
1.37102
1.22372
1.36779
0.931484
0.895717
0.917551
0.981945
1.19763
1.09185
0.639956
0.740155
0.725266
1.46487
1.47061
1.02458
1.02363
0.727166
0.730336
1.05048
0.910863
1.49333
1.11157
1.34921
1.20278
0.785575
1.21876
1.21203
1.15781
1.06646
1.05837
1.15594
0.864375
1.33687
1.10345
0.912007
1.18235
1.20944
1.10334
0.701616
0.881356
1.31336
0.825985
1.12667
1.26457
0.856539
1.04001
1.33955
0.715231
1.26094
1.13099
1.54455
0.639199
0.902266
1.21372
0.715858
0.744958
1.60862
1.61209
1.2876
0.891582
1.02258
0.73409
1.4281
1.0682
1.31339
0.874987
0.857475
1.48159
1.06884
1.15772
1.00233
0.846208
1.60462
1.85198
0.850639
0.631604
1.08703
0.720989
2.32861
0.766186
0.987225
1.32579
0.786575
1.59679
1.12832
1.01363
1.41838
0.968667
0.683637
1.08506
1.51964
0.870768
0.859294
0.952014
1.33084
1.18254
0.891898
1.00051
0.995869
1.19301
1.0809
1.20038
1.22273
0.583877
0.569876
2.52507
0.689046
0.72121
0.880628
1.14543
1.32993
1.33637
0.73784
1.13676
0.924427
0.855017
1.3374
1.09094
1.16694
0.833294
0.998708
1.06126
0.786287
1.60246
1.0668
0.840344
0.757124
1.35354
1.12526
0.87683
1.35774
1.11118
0.96002
1.00913
1.10499
0.768715
1.09627
1.17396
0.845154
0.870562
1.28121
1.16621
1.25312
1.15663
0.831219
1.1048
1.09406
1.07825
0.815883
1.61613
0.953352
1.50114
0.561214
1.58834
0.874892
0.977059
1.60613
0.779888
1.1663
1.25479
1.36094
1.36752
1.70589
0.85174
0.810423
1.579
1.05325
0.904498
1.4088
1.11722
1.10906
0.922837
0.943936
0.925599
1.37451
1.47076
1.307
0.672721
1.13828
1.06324
2.52754
0.778114
0.919294
1.37849
0.537488
1.55921
0.800359
1.00628
1.29265
0.894956
1.29877
1.28419
0.768111
0.767347
1.21975
1.22532
1.20508
1.20461
0.696749
1.42497
1.08071
0.54242
0.534857
0.753147
0.771885
1.54315
1.54627
1.01078
1.00998
1.05253
0.607335
0.678812
1.61734
1.16433
0.928989
0.85169
1.60572
0.82577
1.53722
0.935247
1.28734
0.750028
1.24259
1.18956
0.919732
1.33532
0.877958
0.798067
1.53391
0.789425
1.33037
1.13936
1.17326
1.00291
0.910471
1.37661
0.852059
0.893776
0.887011
1.25563
0.78255
1.37864
1.0942
2.39885
0.787346
0.916121
1.39453
0.732685
0.723612
1.41788
1.42484
1.0771
1.07523
1.05335
0.89657
1.19055
1.21587
1.13641
1.13467
0.989579
0.871965
1.12558
1.51346
0.726562
1.22655
1.19646
0.836462
2.65518
0.779183
1.38137
0.784277
1.14392
0.764081
1.54578
0.981278
1.1475
1.14713
0.692259
1.61709
1.09086
0.982034
0.910301
1.63305
1.35521
0.990291
0.593274
0.903138
1.1911
1.15884
1.00886
0.869513
1.39693
0.810878
1.52911
0.970672
0.922115
1.39227
0.75493
1.08562
0.765257
1.61787
1.09379
1.24664
0.835635
1.03596
1.17722
1.29382
0.865433
0.9882
1.38131
1.04042
1.04545
1.14979
0.995153
0.912729
1.32726
0.759676
1.22545
1.20265
0.825175
0.818767
1.27573
1.27816
1.17839
1.17661
0.767448
0.910121
1.43042
0.695509
1.08283
0.916381
0.690982
0.702187
1.0585
1.0997
0.92095
0.915811
1.57206
1.57986
0.803016
1.38334
1.05989
1.6084
0.757177
1.15992
1.23286
1.33159
1.27861
0.824412
1.26457
1.18567
1.30768
1.40409
1.06587
2.99425
0.928562
0.914961
1.53664
0.821503
1.03811
1.33033
0.853752
0.862041
0.94923
0.948403
1.47284
1.47574
1.51518
0.724887
1.01577
1.05434
1.31726
1.2713
1.2736
0.937419
0.924624
1.39046
0.872661
1.45346
0.804255
2.3675
1.52057
0.852199
1.07559
1.20688
0.982522
1.01427
0.746296
1.31468
1.1502
0.918222
1.1271
0.878939
1.12449
0.904874
1.20742
0.909639
1.02663
1.31527
0.782257
0.771891
1.07931
0.869877
0.999107
0.829821
0.979045
1.34267
1.37843
1.10492
0.960549
2.14146
0.77528
1.00187
1.33174
1.53307
0.80896
0.96082
0.85072
0.957838
1.39562
0.922573
0.794926
1.00898
1.41248
0.975844
1.78139
0.842494
0.831606
1.55382
1.16657
1.33695
1.75638
1.80241
0.690843
0.692431
1.46783
1.05393
0.820667
0.822032
1.33805
1.34894
1.12428
1.11802
1.73194
0.80308
1.02448
1.33426
0.831181
1.36465
1.07273
1.1691
1.55714
0.679615
1.02272
0.94896
1.00917
1.35413
0.86953
0.845291
1.48952
1.16368
0.874065
1.72965
0.847585
0.820814
1.55935
0.771543
1.49957
0.981731
1.39605
0.830951
1.06744
1.31388
1.03595
0.864291
0.74771
0.801372
0.982137
0.793261
0.794588
1.3895
1.39854
1.07045
1.06272
1.32974
1.28132
0.867012
1.39211
0.708171
0.968381
0.873307
1.42847
1.13897
1.30699
1.12338
1.33514
1.15467
1.46642
0.717597
1.24329
1.18153
0.834949
1.36384
1.07987
0.796418
1.3306
1.13839
1.52875
0.794056
0.967649
1.04321
0.910292
1.48776
1.26737
1.73529
0.850572
0.830606
1.58338
0.632488
1.03785
1.61278
0.974692
1.43092
1.48619
0.860212
0.8658
0.830051
0.812384
1.52667
1.51529
1.13335
1.31439
0.749033
1.48982
0.990447
1.10179
0.875141
0.76347
1.34872
1.12838
1.12484
1.18039
1.28057
0.593348
1.29684
1.30631
0.893237
0.831764
1.50132
1.2823
0.880428
0.857169
0.846119
0.881757
1.44989
0.802552
0.975271
1.4725
0.792908
0.974365
0.930759
0.804013
1.39349
1.04301
1.24694
0.87187
0.98512
1.38516
1.32174
0.866025
1.4138
1.163
1.16358
0.774186
0.759684
1.43106
1.43588
1.02196
1.0194
1.23392
0.90135
1.15574
0.916137
1.41142
0.786954
1.6398
1.05101
0.876782
1.02761
1.00645
1.27723
0.888142
0.756225
0.736104
1.63261
0.825223
0.681903
0.968785
1.14444
0.860372
1.22031
1.81562
0.818926
1.74793
0.819569
0.956532
0.934004
1.40615
1.39248
0.635155
0.859712
0.712904
1.53307
0.910377
0.935347
0.765564
1.07316
0.852051
1.62827
1.31413
0.989935
1.05027
1.10001
1.27962
0.875633
0.890064
1.45369
1.03831
0.909566
1.43414
0.91251
0.701432
0.720691
1.43592
1.06672
1.20602
1.21327
0.860886
1.50542
1.49094
0.860919
0.824633
0.801864
1.5311
1.53676
1.12809
0.81667
1.83798
0.935883
1.40953
1.44164
0.785436
0.982622
0.856645
0.952626
1.31933
0.823511
0.762585
1.36309
1.11762
0.770442
1.41701
1.03852
0.715952
1.50648
1.02038
1.14154
1.19456
2.49665
0.645407
0.997717
0.704981
0.698381
1.46165
1.0611
1.0427
1.04414
1.30586
0.801867
0.751406
1.38205
1.10467
0.781372
1.42304
1.01649
0.900766
1.29287
0.794789
2.3553
0.875741
1.44393
0.977879
1.14868
1.16263
0.789962
2.80617
0.863893
1.45003
0.697502
1.46443
1.05935
1.28694
0.857392
1.03277
1.34568
1.35476
0.765711
0.715705
1.41236
1.08748
1.56651
1.5627
0.670162
0.671841
1.0231
0.952817
0.97616
1.01908
0.801556
1.58096
1.60932
0.861921
1.0109
0.985295
0.904008
0.898384
1.63826
0.850542
1.34782
0.979838
0.99791
1.40528
0.87525
1.00788
1.32055
1.33161
0.793716
2.36385
1.4305
0.892352
0.860608
0.704845
1.40305
1.09362
0.887525
1.21465
0.872032
1.00956
1.36316
1.50031
0.74235
0.996743
0.758394
1.49542
0.988831
1.25225
1.02933
0.766314
2.37119
0.982262
1.33277
1.27063
0.825044
0.970608
1.39304
0.805507
1.385
1.07087
0.849757
2.67032
1.28877
1.08279
0.72941
0.677927
1.11563
1.78349
0.754715
1.1244
1.25428
0.995042
0.958294
0.720754
0.719586
1.3485
1.35655
1.12521
1.12398
0.922604
0.903854
1.04159
0.780811
1.62911
1.10186
1.68191
0.832001
0.921255
1.4224
0.963564
1.03958
1.11801
1.07234
0.898161
1.38736
1.20503
1.47749
1.15968
0.699821
0.769269
0.984077
1.26155
1.5096
0.98038
0.685009
3.21659
1.04762
1.09813
0.767651
0.775733
1.42196
1.42833
1.02883
1.0286
1.34544
1.2767
1.54088
0.739356
1.03505
0.962403
0.85234
0.861701
1.3114
1.10565
0.811268
1.03581
1.04464
0.893045
1.09969
1.00535
0.916119
1.44074
1.28908
0.727118
1.26907
1.17209
0.732154
1.16704
1.10569
0.900619
1.47169
1.04926
0.776873
0.792163
1.58747
1.58523
1.06063
1.17077
1.62747
0.683101
0.943045
0.858928
0.871259
0.948496
0.952401
1.3535
1.35768
1.06097
0.740628
0.955101
1.50103
1.05377
1.06224
1.47249
0.823718
1.05782
1.31799
0.841426
0.738829
1.36804
1.1159
0.807002
1.57684
1.58444
0.861114
0.91085
1.21094
0.843159
1.28948
1.02972
1.53693
1.543
0.795497
0.810205
1.04119
1.01421
1.03347
1.03659
1.53724
0.823031
0.962273
1.22465
1.34701
0.820786
1.11039
1.28398
1.0284
1.10709
0.905268
0.572984
0.961231
0.926866
0.764094
0.754627
1.31632
1.33491
1.14991
1.13425
1.34116
0.792113
1.17272
1.23662
1.07675
1.11135
1.19723
1.9637
0.820276
0.864944
1.4914
2.01946
0.813351
0.855794
1.50361
1.40478
1.07495
3.07336
0.959475
1.15464
1.19424
1.06866
1.5343
0.724959
1.21909
1.20027
0.832314
1.63473
1.1858
0.718699
1.47422
1.03415
1.43804
0.769571
1.18119
1.23039
1.78171
0.762467
1.11116
1.26485
1.63422
0.833201
1.55569
0.850992
0.957431
0.789287
1.61401
1.21068
0.785434
1.61465
1.07145
0.901534
1.41195
1.06342
0.780787
1.52099
0.975967
0.769365
2.86845
1.3614
2.0251
0.824719
1.55739
0.851836
1.04752
0.785112
1.6166
1.24176
1.26096
1.1644
0.66087
1.16039
0.667678
1.81742
1.74732
0.948616
0.918784
1.35136
1.06443
1.55335
0.848741
0.954122
1.06019
1.12587
0.631069
1.59994
0.990764
0.949099
1.07678
0.8889
1.20374
0.721684
1.47678
1.02536
1.52486
0.894585
0.937559
0.696366
1.20597
1.12587
0.72232
0.71777
1.47452
1.4878
1.02997
1.02062
1.40376
0.768265
1.19462
1.22116
1.20904
0.856384
1.22343
1.22659
1.0602
0.909658
1.51733
0.573
0.846489
1.20427
0.731189
1.47739
1.01864
0.901575
1.18794
1.28242
0.728758
1.27445
1.17023
1.55975
0.933171
0.850658
1.20048
0.581848
0.872572
1.00617
1.1674
0.837759
1.34945
1.09158
0.794432
0.724501
1.40026
1.09196
0.884975
0.846683
1.52747
0.92839
1.42058
0.852227
0.700883
1.4027
1.09664
1.45789
0.85233
0.924643
1.42219
0.778201
1.36894
1.10782
0.80619
1.02763
0.663961
0.711376
1.45386
1.05669
0.850874
0.853506
1.28927
1.02085
1.23716
1.46913
1.07635
3.20242
0.661018
1.06428
1.05889
1.29744
0.730125
1.20001
1.10015
0.724064
1.31558
1.1476
0.919716
0.785085
1.30365
1.15972
1.09377
0.971849
1.01865
1.06289
1.33928
1.18398
1.15403
1.16055
0.92987
0.923204
0.922457
2.05715
0.794011
0.957225
1.37467
1.52859
0.999543
1.14234
0.941089
0.91145
0.91469
1.03889
1.05358
0.755519
0.66939
0.715975
1.43312
1.07013
0.903507
1.32906
0.753606
3.18497
0.914033
1.57257
1.22057
1.02767
1.6467
0.821877
0.995443
1.35829
0.84674
1.10221
1.08952
1.09602
1.23123
0.798274
1.19141
1.23038
0.786355
1.1559
0.650519
0.990436
1.27895
0.847284
1.62764
1.03043
1.02194
1.43094
1.29534
0.929185
0.89912
0.940095
1.48357
0.769062
2.77294
1.35635
1.92693
0.818665
1.47381
0.880729
1.48413
0.883714
0.769377
1.12159
1.21127
0.822636
1.59512
0.62054
0.970923
0.94482
1.12291
1.00064
1.20589
0.770013
1.46465
0.988475
0.860899
1.48052
0.946177
0.730383
1.43999
1.05804
1.02122
0.689612
1.29658
1.15236
1.68055
0.878522
0.856875
0.855808
1.34387
1.09506
1.10063
1.10613
0.870671
0.734915
1.63055
0.884218
0.817912
1.00112
0.910099
1.11746
0.94551
1.00982
1.40417
0.686973
1.09676
0.912087
1.21946
1.23201
0.830338
1.22891
1.21076
0.86738
1.43846
0.816276
1.53006
0.738914
1.58029
1.04885
1.33559
1.0838
0.738397
0.858793
1.18932
1.63009
0.714879
0.94532
0.69126
1.30499
1.14564
0.993217
1.26987
0.856212
1.10578
1.18242
1.19101
0.97013
0.942017
0.745904
1.63267
0.757807
1.6366
1.21351
1.24541
0.967974
0.965354
1.33213
1.53785
0.737353
1.20586
1.20853
1.54671
1.55754
0.644122
0.689261
1.02097
1.03354
0.920807
0.938834
1.4916
1.23353
0.8916
0.851606
1.57533
0.853435
0.824235
1.52954
0.914669
1.65847
0.760051
1.14315
1.24643
0.939198
0.905233
1.64309
1.39174
0.978378
0.768382
1.14559
0.812828
1.00874
1.38824
1.1464
0.96287
1.10713
0.933988
0.913753
1.11237
1.09961
0.770288
1.42207
1.04178
1.1867
0.601675
1.01435
0.989536
0.768501
1.51647
0.976496
1.3542
0.877585
0.794215
1.5414
0.859958
1.52908
1.00103
0.64222
1.61461
1.0584
0.975607
1.26607
1.15726
0.622358
1.58989
0.655808
1.59472
0.981945
1.00795
1.00131
1.0025
1.13396
1.51027
0.784978
0.97622
0.778423
1.64333
1.3156
0.950914
1.27297
0.930147
0.893241
0.870646
1.17122
1.14508
1.15067
0.974143
0.755183
0.989012
1.16754
0.920441
1.17977
1.25511
0.914818
1.21243
0.79672
1.20696
1.22088
0.9574
1.33718
1.05039
0.80017
1.43334
1.13221
1.26999
1.82705
1.14399
0.650183
0.652197
1.61406
1.07102
0.950371
0.783864
0.777109
1.40937
1.42138
1.03998
1.03104
1.52717
0.893156
0.859246
1.10535
1.08772
0.578069
1.15715
1.1388
0.956852
0.966366
1.09358
1.01383
0.914112
1.45768
0.910264
0.846657
0.857669
1.18739
1.25302
0.790077
1.20533
1.21891
1.07694
0.825647
0.945073
0.918871
0.792251
1.64741
0.941166
1.36642
0.871983
1.29127
0.786731
1.40566
1.06175
0.860538
0.949126
1.33798
1.13502
1.2626
0.811902
1.16703
1.24716
1.07314
0.655845
1.97586
0.828269
1.56725
0.83551
1.19989
0.927285
0.937379
0.859058
0.867961
0.884427
1.33905
0.805015
1.35532
1.29877
1.67321
1.13701
0.668686
0.553748
1.5837
0.89243
0.99473
1.35917
0.846556
1.033
1.34138
0.745482
1.63602
1.32219
0.923703
1.22285
1.16878
1.17484
0.732046
1.00544
0.686981
1.38263
1.10538
0.676824
0.948425
0.883204
0.946935
1.39644
1.64199
0.792774
0.962682
1.30648
1.23554
0.785554
1.37419
1.10091
1.46268
1.47664
0.727463
1.02419
2.24459
0.727727
1.08034
1.25992
1.27189
1.28078
0.647088
0.764042
0.761247
2.5675
2.46084
1.3336
1.3319
0.63827
0.821488
1.37829
1.06412
0.730063
1.51158
1.00322
0.949612
0.903427
0.894072
1.11797
1.18269
0.843746
1.27619
1.35272
1.03708
0.954319
1.01584
0.870128
0.86645
0.824224
1.61449
0.842724
0.878776
1.46018
0.93424
1.05837
1.07483
1.25908
1.25154
0.908225
1.12411
0.811334
1.07613
0.898497
1.38284
1.5458
0.777384
0.984563
1.49719
0.644892
0.752106
1.00466
0.995819
0.781554
1.58265
0.80022
0.540765
1.57488
0.861758
0.999006
0.812466
1.51152
1.27377
0.881517
0.934701
1.21155
0.878758
0.939524
1.46397
1.42017
0.858503
1.40149
0.861654
0.906139
0.895242
1.44101
1.44765
1.50584
0.666292
0.787631
0.760421
1.57224
1.4981
0.731493
1.22052
1.19818
1.03649
1.14846
0.911202
0.715189
1.46377
1.04302
0.916063
0.565579
0.722661
1.52342
1.01261
1.58094
0.841535
1.91146
0.838054
0.949781
0.793311
1.62371
0.973717
1.04146
1.18869
0.783386
1.10984
1.10861
1.13444
0.797481
0.84156
0.770101
1.56566
0.962029
0.902181
0.890373
1.03365
1.16941
1.4354
0.856818
0.789535
2.77543
1.12704
1.10497
0.889936
0.891117
1.38089
1.37747
1.11875
0.711091
1.506
1.02224
0.555061
0.728696
1.5251
1.01735
0.750109
0.989924
1.1761
0.877669
0.878119
1.27871
1.26626
1.27731
1.16702
1.17778
1.17487
0.965001
0.960657
1.01538
0.829227
1.71116
0.914219
0.762979
1.42929
1.05091
0.731763
1.28781
1.17158
1.47736
0.722266
1.02068
1.22044
1.22536
0.838083
1.03028
0.596562
1.16569
1.20793
0.876389
0.881535
0.981625
0.984708
1.38261
1.38177
0.856175
0.800836
1.0027
1.39459
2.74811
0.696485
0.944865
0.813269
1.37276
1.06302
0.547081
0.870865
1.58054
0.993867
0.849217
1.22483
1.21428
1.10297
1.63839
0.787685
1.64088
0.797949
1.45911
1.47312
0.907416
0.909082
1.09002
1.09293
0.730643
1.485
1.00905
1.0625
0.718655
1.50113
1.02236
0.788458
1.85742
0.813688
0.807542
1.8225
0.960705
0.972617
1.37882
1.37242
0.834151
1.10503
1.14807
0.735711
1.99099
0.797089
0.975749
1.36232
0.785735
1.13974
1.01943
1.10364
0.91588
1.3564
0.79788
1.5506
1.10195
1.28016
0.81122
0.816329
1.37694
1.38565
1.05045
1.04537
1.09839
1.09843
1.21697
1.21693
0.799736
1.5833
1.55064
0.866868
0.8307
1.36004
1.07286
0.594908
1.59226
0.916952
0.957922
0.826136
0.981692
0.812038
0.94679
0.536354
1.57566
0.819804
0.984661
0.779211
1.4027
1.06063
1.34883
0.92939
0.948975
0.992879
0.90041
0.905999
0.78202
0.771156
1.23429
1.28111
1.54848
1.54084
0.890866
0.885282
0.884242
1.17595
1.16885
0.787042
1.5707
0.943617
1.13479
0.749329
0.738845
0.789281
1.03089
0.91535
1.50479
1.51264
0.840416
0.970782
1.38245
0.681712
1.62028
1.10797
0.978038
1.11729
1.17821
1.00511
0.91578
1.45402
1.90059
0.716715
1.155
1.22325
0.880817
0.849623
0.856448
0.839983
1.08065
0.748039
0.646448
0.759824
1.4337
1.0258
0.630264
0.996058
1.15079
1.17492
1.25091
1.16799
1.13297
0.980801
0.759854
1.47
0.993879
0.911572
1.38572
0.781835
2.56803
1.17859
0.764763
1.43667
1.02694
0.943583
1.07093
0.820679
1.36457
1.08273
0.9166
1.20795
1.32107
1.36314
0.830819
0.832911
1.08367
1.09604
1.30474
1.29616
0.756186
1.42635
1.04451
2.91944
3.00542
0.74526
0.742383
0.948962
1.30727
0.945465
1.31439
0.737651
2.54743
1.0166
1.29275
0.683252
1.00292
0.93752
1.06084
1.07762
2.90174
0.747791
1.31989
0.93974
0.820387
1.15287
0.852414
0.955327
1.36051
0.986161
0.989108
1.49541
1.07657
1.26422
1.14409
0.887345
1.33705
1.08847
1.0942
0.787832
1.01214
1.40454
0.924476
0.925837
0.80704
1.12068
1.13055
0.960002
0.970015
0.67053
0.659676
1.60476
1.60849
1.06857
1.11733
0.934329
0.932155
1.26264
0.854785
1.06148
1.32539
0.965489
0.592038
1.60057
0.944645
0.965034
0.924852
0.849299
0.963773
1.27047
1.17941
1.26514
0.738133
1.44465
1.04504
1.35809
0.711182
1.07072
1.03364
1.90714
0.805495
1.38289
0.957081
1.15993
1.33497
0.874317
0.656638
0.632519
1.60005
1.0242
0.942022
1.14306
1.11338
1.1663
1.25777
2.01732
0.661722
1.21132
1.17898
0.715351
1.57389
1.30504
0.883246
0.791204
1.62588
0.798976
0.998244
1.40764
0.911247
1.30599
1.21388
1.07647
1.17591
1.1479
1.12773
1.27619
0.943525
0.788106
2.03947
0.988735
1.34331
0.939796
0.947472
1.41845
1.42331
0.881709
0.94285
1.41522
1.34894
0.908783
1.20016
1.00847
0.822409
0.988455
1.82581
1.77779
0.76278
0.76852
1.09837
1.09946
1.27256
1.27043
1.3455
0.954264
1.12062
0.967999
0.93383
1.4149
1.40742
0.960543
0.774322
0.840816
1.65311
1.44221
0.938506
0.864388
0.860179
1.45098
1.67078
1.68062
0.816749
0.810371
1.0085
1.02114
1.34188
1.34638
0.987625
0.983456
1.07228
0.989904
1.2075
1.58947
0.894235
1.04228
1.03537
1.10367
0.900401
1.47036
1.31618
0.877468
0.793005
1.53102
1.13717
0.723381
0.762197
1.00359
0.978452
0.851567
1.26978
1.25319
1.09698
1.10242
2.38025
2.23573
0.652455
0.615979
1.05773
0.921503
0.938345
0.685312
1.41002
1.40499
0.690427
1.08898
1.09734
0.988063
1.2362
1.46121
0.874297
1.63968
0.769238
0.95982
1.26708
2.14142
0.657656
1.18242
1.18963
0.722245
1.73727
0.811004
1.0033
1.34899
0.937256
0.969785
0.764179
1.46813
0.992906
1.17342
1.20146
1.78407
0.826914
0.908673
1.43569
0.849184
0.834603
0.894882
1.07325
1.03559
1.88759
0.823199
1.48258
0.86207
1.46953
0.797563
0.971211
1.05359
0.909792
0.788744
1.51351
0.951375
0.850678
1.15704
1.38571
1.07914
1.11264
1.18122
2.98361
0.590601
1.35733
0.92559
0.822772
1.74968
0.939569
1.40538
1.2192
0.835718
1.54575
0.762147
1.39817
1.08899
1.27696
0.997344
0.762283
0.687202
2.16345
0.81085
1.53552
0.858961
1.27293
0.833416
0.984869
1.45827
1.00298
1.19624
1.47087
0.842756
1.37606
0.986557
0.674262
0.690491
1.57627
1.581
1.04475
1.0587
0.921231
0.925947
1.11364
0.829203
0.969762
1.38355
1.01814
1.02712
1.43798
0.61799
0.754039
1.39948
1.08652
1.20743
0.870904
1.02214
1.35411
1.34932
0.881279
1.06154
0.568625
0.72745
1.51916
1.01538
1.79653
0.822875
0.897641
1.44864
1.01362
0.739248
1.47539
1.01174
1.69439
0.827526
0.950327
1.39683
0.543712
1.57564
0.84247
0.98252
1.237
1.1169
1.13147
1.21023
2.58376
1.20274
0.658126
2.50812
0.642976
0.896932
0.904511
1.47222
1.05466
0.959836
0.824379
1.31567
1.14625
0.921113
0.917727
1.51971
1.53962
0.852406
0.849724
0.856896
0.867556
1.47577
1.48814
1.12195
1.08822
1.0792
0.790065
1.00146
1.41031
1.09508
0.912639
1.23287
1.20893
0.852258
0.830273
1.11483
1.00834
1.1941
0.943743
1.07382
1.26527
0.849477
1.0751
1.3139
0.797066
3.15136
0.765986
1.35002
0.884616
1.29136
1.04246
0.539065
1.58269
0.869726
0.978313
1.28085
1.13085
0.891159
1.01319
0.967161
1.18029
1.94606
0.808175
0.930045
1.40524
0.929877
1.00066
0.795415
1.49777
1.11544
1.27317
1.52383
0.773417
0.975776
0.852219
0.963023
0.993106
1.13151
1.13713
1.70163
0.774338
1.10582
1.27283
1.04476
0.857718
1.16441
0.807312
1.37849
1.04576
0.80717
1.38239
1.07253
1.43368
0.824702
1.07426
1.30792
1.30517
0.704685
0.727708
0.920547
0.99591
1.15348
1.2953
1.23503
0.983594
1.61316
0.815869
0.802762
0.991735
1.56911
0.719854
1.02276
1.00799
1.10057
1.09132
2.20458
0.723534
1.08724
1.25721
0.920527
0.923685
1.11479
1.09322
1.43802
1.07312
0.782648
1.14037
0.720289
1.50054
1.01304
0.798281
1.24497
1.32371
1.48135
1.48616
1.05474
1.05621
0.865642
1.41418
0.819385
1.51123
1.1472
1.46644
1.06581
1.17134
0.787719
1.45789
1.39609
0.834642
0.840769
1.0246
1.03698
1.33745
1.34655
0.911004
0.747613
1.43559
1.04392
0.703675
1.56992
0.847676
1.48793
1.02003
1.30016
0.793607
0.789312
1.40557
1.39989
1.04265
1.0432
0.663727
0.95519
1.23789
1.49957
0.884484
0.577471
1.53568
0.779607
1.0244
1.57669
0.843546
0.893234
1.45481
0.838351
0.961824
1.39268
1.03421
0.813447
1.2424
1.19847
0.735768
1.46217
1.0346
0.849469
0.845327
1.18191
1.05113
1.72248
0.824945
0.939393
1.40757
1.49325
0.891632
0.954868
1.04693
0.679811
1.39649
1.0977
1.56601
0.857399
1.55371
0.800858
1.47813
0.817992
1.07129
1.30957
1.03053
1.54121
0.791844
0.976748
1.05179
0.655005
0.644313
1.60493
1.6063
1.03827
1.06403
0.938147
0.941448
0.83495
0.830146
1.29543
1.29237
1.16476
1.16367
0.923508
0.667945
0.937033
0.967305
1.14597
0.64821
0.71205
1.46716
1.04551
0.685276
1.60557
1.13676
0.926741
1.32327
0.812194
0.979513
0.906604
0.745176
1.32137
1.21812
1.23927
0.903635
0.906317
1.72844
0.725683
1.17859
1.21586
1.11609
1.60806
0.788759
0.881745
0.992069
0.97671
0.965943
1.18766
1.17436
0.840992
1.13436
1.27534
0.923129
1.54962
0.793289
0.969203
0.878915
1.52857
0.942943
0.912816
0.797384
0.920269
1.10858
0.888527
1.84644
0.749945
1.11869
1.25376
1.22051
1.20607
0.81888
1.17122
1.24558
1.15813
0.790642
0.715663
1.41023
1.08704
1.3497
0.867784
1.45868
0.896529
0.929574
0.940097
1.50349
0.759201
0.980448
1.39787
1.40807
1.09659
1.09044
1.14115
0.842153
0.542224
1.53754
0.749278
1.0077
0.784473
1.64392
0.940455
1.33914
0.554978
0.558189
0.880094
0.724627
1.45936
1.03514
0.78342
1.47914
1.05413
0.845914
0.853703
0.67203
1.58573
1.04969
0.929346
1.7929
0.839904
0.825112
1.56543
1.07602
1.07743
1.02936
1.04264
0.786812
0.99102
1.42521
0.771176
1.09955
2.80962
0.745944
1.31267
0.966814
1.18036
1.16959
1.41727
0.772273
1.05706
0.819225
0.969959
1.4012
0.744793
0.730726
1.43663
1.4385
1.05467
1.05477
1.32587
0.706706
0.700114
0.920225
0.932835
1.48312
0.712133
1.34188
0.758318
1.53501
0.991957
0.928293
0.935488
1.10805
0.909652
0.971547
1.12082
0.90612
0.731121
0.773689
1.06149
0.932837
0.870724
0.857776
0.954211
1.27759
1.15725
0.847925
0.865404
1.15961
1.15458
1.05438
1.05469
0.839559
1.10069
1.46493
1.06524
1.04491
0.900642
1.36
1.0316
1.04959
0.773648
0.808833
0.87407
1.20148
1.1328
1.29435
1.09802
1.92993
2.6066
0.743306
0.595073
1.50546
0.805264
0.963576
2.13188
0.810733
0.850119
1.51523
1.11653
0.83943
0.832571
1.16638
0.794592
1.21849
1.21365
0.840482
0.840526
1.2245
1.23364
1.21612
1.21021
1.60948
0.806702
1.06223
1.30845
1.75213
1.70208
0.832646
0.838462
0.852207
0.867733
1.49484
1.4856
1.11289
0.885634
1.35737
2.12273
0.812842
0.858967
1.50364
1.13676
0.882339
0.739746
1.4454
1.04528
0.848698
1.20428
1.16784
0.873412
1.02392
1.46253
1.06862
0.902011
0.802542
0.66887
0.804794
0.804608
0.996806
0.960399
0.753769
0.749215
1.31852
1.32693
1.14631
1.14338
1.52845
0.778685
0.975545
1.02565
1.04083
1.03781
1.07021
1.19897
0.806054
2.23058
0.852709
1.52836
1.02489
0.837213
1.17506
0.768236
0.759113
1.40106
1.40058
1.08221
1.08046
0.781522
0.677673