/*--------------------------------*- C++ -*----------------------------------*\
| =========                 |                                                 |
| \\      /  F ield         | OpenFOAM: The Open Source CFD Toolbox           |
|  \\    /   O peration     | Version:  2312                                  |
|   \\  /    A nd           | Website:  www.openfoam.com                      |
|    \\/     M anipulation  |                                                 |
\*---------------------------------------------------------------------------*/
FoamFile
{
    version     2.0;
    format      ascii;
    arch        "LSB;label=32;scalar=64";
    class       volSymmTensorField;
    location    "1";
    object      epsilon;
}
// * * * * * * * * * * * * * * * * * * * * * * * * * * * * * * * * * * * * * //

dimensions      [0 0 0 0 0 0 0];

internalField   nonuniform List<symmTensor> 
26526
(
(0.729828 0.428608 0 0.992279 0 0)
(1.15529 0.667961 7.24393e-19 0.911499 8.56991e-20 0)
(1.21436 0.623313 -3.69161e-19 0.878024 -2.82821e-19 0)
(1.21499 0.611711 7.22922e-19 0.876474 -3.20458e-19 0)
(1.22311 0.592541 -7.45268e-19 0.88676 1.38527e-19 0)
(1.34096 -0.427432 -5.5312e-20 0.769233 -6.11281e-20 0)
(0.234799 0.938152 1.29382e-18 1.60913 8.97287e-19 0)
(1.13706 0.521277 1.62876e-20 0.990282 -1.02344e-19 0)
(0.0127105 0.850092 9.9423e-19 1.61252 2.72019e-19 0)
(0.392606 0.614503 -4.69575e-19 1.34623 -5.84313e-19 0)
(0.735913 -0.134182 -1.10233e-19 1.21063 1.75121e-20 0)
(1.25769 0.573418 -8.15364e-19 0.850303 -8.84813e-19 0)
(1.74306 -0.43189 -2.21546e-19 0.354379 -5.27953e-20 0)
(1.79642 -0.473817 -3.7704e-19 0.334166 1.3915e-20 0)
(1.31901 0.205878 -1.81499e-19 0.851845 2.32053e-19 0)
(1.3212 0.217308 1.0811e-19 0.854806 -6.10037e-19 0)
(0.123981 0.706635 -4.92234e-19 1.3546 2.04627e-19 0)
(0.118477 0.695026 8.70266e-19 1.3473 4.53362e-19 0)
(0.392833 0.776274 4.38504e-19 1.41602 4.7686e-19 0)
(0.38605 0.7824 -1.19034e-18 1.42574 -8.52339e-19 0)
(0.697691 0.749209 -4.67555e-19 1.13696 1.73184e-19 0)
(1.11007 0.657969 3.58194e-19 0.962085 -7.8559e-20 0)
(1.49877 -0.242906 -1.46298e-18 0.625251 6.63001e-19 0)
(1.26185 0.47747 -8.564e-19 0.896525 -3.05514e-19 0)
(0.36927 0.898991 6.5044e-19 1.48238 5.14165e-19 0)
(1.53422 -0.484204 -4.92147e-19 0.414769 1.382e-19 0)
(0.66173 -0.154086 -2.06481e-19 1.26302 -1.94698e-19 0)
(1.37784 0.310611 7.91617e-19 0.748499 -4.10333e-20 0)
(1.15056 0.64086 4.24824e-19 0.93099 8.48612e-20 0)
(0.157652 0.462207 2.06088e-18 1.18272 7.47853e-19 0)
(1.32794 0.396991 1.3955e-20 0.82037 6.39134e-20 0)
(0.628184 0.813226 1.86951e-18 1.28008 9.96513e-19 0)
(1.10122 0.551487 4.91071e-19 0.885498 2.47471e-19 0)
(0.67249 0.836596 1.48021e-18 1.26092 8.9405e-19 0)
(1.41178 -0.047669 -2.23568e-20 0.5523 -5.3527e-19 0)
(1.18082 0.0719752 2.02959e-19 0.924768 3.50187e-19 0)
(0.111264 0.860286 1.65437e-18 1.51547 1.15841e-18 0)
(0.549807 0.692667 -3.52362e-19 1.29779 -3.57622e-19 0)
(0.105542 0.951726 4.02192e-21 1.70736 -5.62149e-19 0)
(1.09594 -0.410818 -7.51211e-19 1.01123 7.34923e-19 0)
(0.896804 0.578252 3.45518e-19 1.12336 -3.36853e-19 0)
(2.29019 -1.79122 -1.65155e-18 -0.12419 1.89871e-19 0)
(1.28337 -0.0411618 1.30445e-19 0.949359 3.83437e-19 0)
(0.0653213 0.760434 9.24074e-19 1.58251 5.94334e-19 0)
(0.0984355 0.949094 -5.61113e-19 1.71428 -6.7597e-19 0)
(0.901264 0.577431 1.56315e-19 1.12881 -9.8339e-20 0)
(0.812029 0.851068 9.27122e-19 1.15365 3.73057e-19 0)
(0.622945 0.870924 -3.70948e-20 1.2421 3.82966e-19 0)
(0.254319 0.43935 1.34972e-18 1.14772 1.51782e-18 0)
(0.0644989 -0.233367 1.12987e-18 0.95007 9.09089e-19 0)
(0.00598097 0.925414 -2.8308e-18 1.8386 -2.06861e-18 0)
(0.699278 -0.709588 5.7052e-19 1.3255 -5.01624e-19 0)
(0.765303 0.560288 3.67116e-19 1.22531 1.80283e-19 0)
(1.31219 0.191974 1.29046e-18 0.863009 -2.55183e-19 0)
(1.80332 -0.505209 5.86238e-19 0.306727 -1.08727e-19 0)
(0.107185 0.697286 0 1.35401 0 0)
(0.367827 0.770481 2.37877e-18 1.42395 1.98052e-18 0)
(1.78717 -0.760928 9.87171e-19 0.319821 -2.95343e-19 0)
(1.34036 0.237028 -1.51452e-19 0.874005 -1.06648e-19 0)
(0.0781031 0.577069 0 1.28007 0 0)
(0.289836 0.81901 7.46704e-19 1.49765 5.59517e-19 0)
(0.563955 0.894207 -1.67615e-18 1.2939 -8.82202e-19 0)
(0.564297 0.897821 -2.19054e-19 1.29723 -3.99225e-19 0)
(1.14444 0.624519 5.9777e-19 0.891625 3.30501e-19 0)
(1.03836 0.660302 1.2266e-18 0.948216 6.12944e-19 0)
(0.238397 0.688815 7.0646e-19 1.28746 5.02801e-19 0)
(1.74044 -1.12048 5.32112e-19 0.388491 -1.20172e-19 0)
(1.73821 -1.05931 -1.95007e-19 0.387521 4.31084e-20 0)
(1.32878 0.230582 -6.66697e-19 0.930348 1.81132e-19 0)
(1.3262 0.239934 1.17409e-18 0.912712 -4.74023e-20 0)
(-0.0189821 0.415482 2.10872e-18 1.1958 9.34597e-19 0)
(-0.00654725 0.436108 -6.37277e-19 1.21707 9.50731e-19 0)
(0.177465 0.851144 -2.42217e-19 1.58892 7.23879e-22 0)
(0.204594 0.854831 3.95153e-19 1.5782 4.60237e-19 0)
(0.235382 0.443409 1.0558e-19 1.16539 3.72981e-19 0)
(1.07827 -0.186549 4.70798e-19 0.682313 -1.75557e-19 0)
(1.03416 -0.23482 -3.50914e-20 0.675523 1.93216e-19 0)
(0.809304 -0.184059 2.47729e-19 1.19493 3.60334e-20 0)
(0.797708 -0.204273 3.11185e-20 1.21293 1.06332e-19 0)
(0.521031 0.82487 -6.20954e-19 1.25999 6.17358e-20 0)
(0.569561 0.836353 -7.10535e-19 1.24107 -4.26389e-19 0)
(0.348603 0.77067 -8.01804e-20 1.29755 -5.01394e-19 0)
(0.165335 0.951764 -1.1465e-18 1.67112 -9.84488e-19 0)
(1.22945 -0.463396 -4.06381e-19 0.896741 3.26328e-19 0)
(1.02871 0.547929 -4.45979e-19 1.05455 -2.82711e-19 0)
(0.830418 0.799817 1.79302e-18 1.10091 6.33048e-19 0)
(1.30837 0.398749 2.63398e-19 0.762901 1.30213e-19 0)
(0.925297 0.163165 6.59517e-19 0.831028 -9.19862e-19 0)
(0.585371 0.907125 -1.00555e-18 1.32161 -3.71563e-19 0)
(1.29206 0.10883 -4.3592e-19 0.844299 4.59537e-19 0)
(0.253091 0.929445 0 1.50906 0 0)
(0.78845 0.69615 -1.08812e-18 1.16077 -8.5596e-19 0)
(0.596924 0.799756 -7.16569e-19 1.20885 -6.27906e-19 0)
(1.34845 0.120303 -7.88116e-19 0.770834 -2.23475e-19 0)
(0.393079 0.938875 2.7356e-19 1.45668 5.59198e-19 0)
(1.01772 0.666301 -2.86408e-19 1.03136 -5.34347e-19 0)
(0.840387 0.79331 6.20362e-19 1.09407 3.50942e-19 0)
(1.16063 -0.765579 -6.73493e-20 0.960934 2.63171e-20 0)
(1.05093 0.492258 6.82134e-19 1.07411 1.73666e-19 0)
(-0.137857 -0.23721 -6.16452e-19 0.964471 -2.0905e-19 0)
(-0.179589 -0.24634 9.77348e-20 0.981096 -9.33571e-19 0)
(0.00994362 0.934807 -7.29371e-19 1.85661 -8.25958e-19 0)
(0.0049182 0.93268 -3.53929e-21 1.86381 -3.09351e-19 0)
(0.844369 0.53201 1.82723e-19 1.21281 -2.05121e-19 0)
(0.734007 -0.895481 -1.05169e-18 1.31775 9.0372e-19 0)
(0.658334 -0.921823 -1.64198e-19 1.33248 1.9968e-19 0)
(0.84792 0.526597 -7.86727e-19 1.22244 2.46489e-20 0)
(0.764275 0.871107 2.10986e-19 1.18316 -4.46877e-19 0)
(0.749592 0.867295 3.51055e-19 1.18043 6.0485e-19 0)
(1.3652 -1.2219 1.12846e-18 0.706586 -4.33745e-19 0)
(1.22877 0.322195 -2.27454e-19 1.03801 1.45622e-19 0)
(1.36991 -1.25596 1.18689e-18 0.73624 -4.39353e-19 0)
(1.22011 0.324276 1.57855e-18 1.03246 -5.18739e-19 0)
(-0.132154 0.20575 -2.12425e-18 1.11564 8.86207e-19 0)
(-0.157503 0.178195 -3.21371e-18 1.11885 -1.82993e-19 0)
(0.0902777 0.911608 -1.42927e-20 1.70471 1.22073e-19 0)
(0.0967019 0.917239 -2.54729e-18 1.7102 -1.98612e-18 0)
(0.827559 0.414864 1.56468e-18 0.949181 1.31726e-18 0)
(1.09491 0.719783 -3.33301e-19 0.960109 -4.23633e-21 0)
(1.8444 -0.793644 -3.13242e-19 0.321176 7.15672e-20 0)
(1.34002 0.229041 4.00567e-19 0.872762 -2.80555e-19 0)
(0.0688374 0.563461 3.75633e-19 1.26294 -9.35586e-20 0)
(0.272204 0.822094 1.065e-18 1.50925 8.16632e-19 0)
(0.961206 0.713863 -2.75655e-19 1.05256 7.23192e-20 0)
(1.47216 -1.32449 1.36191e-18 0.640221 -5.0912e-19 0)
(1.2552 0.277974 2.81153e-19 1.0207 1.09571e-19 0)
(-0.150724 0.216438 7.59568e-19 1.12013 1.00978e-18 0)
(0.091372 0.900785 2.53448e-19 1.69109 2.6578e-19 0)
(1.14705 0.678853 5.16883e-19 0.921079 1.41211e-19 0)
(0.217156 -0.328488 -7.54195e-19 0.938384 -2.75796e-19 0)
(-0.0108402 0.902372 -9.52181e-19 1.82907 -7.33442e-19 0)
(0.654231 0.586685 1.19414e-19 1.2593 4.63666e-19 0)
(0.564127 -0.578769 4.1497e-19 1.40326 -5.19301e-19 0)
(0.780622 0.819176 5.54454e-19 1.17793 6.71289e-19 0)
(1.19204 0.621162 -2.08829e-18 0.876806 -1.50774e-18 0)
(0.578069 0.907969 -1.89267e-19 1.33072 3.20209e-20 0)
(0.646949 0.64786 -9.36694e-19 1.10916 -9.40852e-19 0)
(0.730778 -0.0988535 3.18459e-19 0.83264 -3.62712e-19 0)
(0.0238447 0.914064 -1.1897e-19 1.71863 -2.83427e-19 0)
(0.854624 -0.297489 -4.47017e-19 1.19725 6.60229e-19 0)
(0.627809 0.61196 -1.99088e-19 1.24939 -1.5362e-19 0)
(0.691172 0.854457 -6.47961e-19 1.24953 -1.31586e-19 0)
(0.727118 0.237974 -5.14887e-19 0.924292 -7.73812e-19 0)
(0.744689 0.242456 4.91508e-19 0.926576 2.55528e-19 0)
(-0.0126936 0.864854 6.07526e-19 1.74913 5.79663e-19 0)
(0.730496 -0.425096 0 0.781173 0 0)
(0.466292 0.599706 3.25322e-19 1.31068 2.82133e-19 0)
(0.497478 -0.362017 -6.63641e-20 1.42571 -1.11634e-19 0)
(1.3816 0.0278818 1.16188e-20 0.59392 1.49913e-19 0)
(1.24058 0.127231 -4.52672e-19 0.878221 -2.70302e-19 0)
(0.160764 0.861408 1.20082e-18 1.48949 5.28591e-19 0)
(0.599576 0.716494 5.56542e-19 1.28085 3.13476e-19 0)
(1.10152 0.715497 -6.12051e-19 0.953532 -2.5818e-19 0)
(0.91198 0.624372 1.46026e-19 0.989869 3.65955e-19 0)
(0.894672 0.632866 -1.93203e-19 0.999521 -8.4956e-20 0)
(0.467939 0.504291 1.53154e-18 1.11951 4.25758e-19 0)
(0.740901 0.781191 1.57901e-19 1.13319 -2.35322e-19 0)
(1.57568 -0.13652 1.06586e-18 0.515092 -2.2909e-19 0)
(1.21579 -0.957403 -4.49721e-19 0.885911 1.161e-19 0)
(1.12555 0.435367 1.91398e-19 1.05509 3.58443e-19 0)
(1.29949 0.0589861 -3.30791e-19 0.838924 -1.94105e-19 0)
(0.27018 0.942602 4.56358e-19 1.52366 3.84063e-19 0)
(0.866366 0.678031 -3.51823e-19 1.11554 -8.06288e-20 0)
(0.694863 0.861232 5.99445e-19 1.20242 3.66574e-19 0)
(0.705474 0.871084 -5.79953e-19 1.20452 -3.33802e-20 0)
(1.67348 -0.304834 -6.7506e-19 0.4751 1.45883e-19 0)
(1.78385 -0.59172 9.29845e-20 0.333356 1.27631e-20 0)
(1.3316 0.230987 -2.16414e-19 0.857674 2.06909e-19 0)
(0.104267 0.64423 -4.77865e-19 1.31594 -7.99827e-20 0)
(0.347092 0.80011 -9.71662e-19 1.4576 -7.808e-19 0)
(0.156271 0.280193 1.2384e-18 1.11355 1.72162e-19 0)
(1.29417 -0.665759 1.08296e-19 0.842414 1.05637e-19 0)
(0.163081 0.943419 5.22132e-19 1.67966 8.82338e-19 0)
(1.11671 0.487188 -5.94732e-20 1.01939 -1.71808e-19 0)
(1.51444 -0.670881 4.08139e-19 0.624137 -2.07933e-19 0)
(1.25505 0.409088 -4.43656e-19 0.931143 -1.27187e-20 0)
(0.141403 0.435892 -4.05762e-19 1.18531 9.8145e-19 0)
(0.243003 0.906705 1.13053e-18 1.59195 4.81824e-19 0)
(1.3906 0.297551 3.0039e-20 0.731514 1.64594e-19 0)
(1.21996 0.583207 -1.57007e-18 0.878727 -8.89824e-19 0)
(1.14874 0.609384 0 0.888611 0 0)
(1.14346 0.682088 -2.95915e-19 0.928118 2.97241e-19 0)
(1.36928 0.202481 2.79393e-19 0.755281 2.19752e-19 0)
(1.06012 0.67028 -7.2806e-19 0.997486 -9.2947e-20 0)
(1.53526 -0.78103 2.65904e-19 0.611897 -2.46134e-19 0)
(1.26546 0.379595 -2.44251e-19 0.941008 2.17019e-19 0)
(0.0897917 0.410391 -7.7086e-19 1.17104 9.10426e-20 0)
(0.209058 0.902401 0 1.60658 0 0)
(1.2671 0.555349 1.81039e-18 0.843903 4.71702e-19 0)
(1.31195 0.181144 1.82032e-19 0.861137 -3.0904e-19 0)
(1.84221 -0.540686 4.74209e-19 0.290478 -7.55944e-20 0)
(0.10327 0.686617 3.5687e-19 1.34816 -7.66053e-20 0)
(0.364564 0.774979 -5.47191e-19 1.43106 -5.67095e-19 0)
(0.205852 0.848192 9.12513e-19 1.57532 4.57877e-19 0)
(0.755539 0.862237 1.05318e-18 1.20602 5.78501e-19 0)
(1.28429 0.0768252 -7.45372e-19 0.829151 -4.71241e-19 0)
(0.270789 0.937019 7.65116e-19 1.51548 3.15264e-20 0)
(0.869573 0.680846 -9.45356e-19 1.12079 -3.68739e-19 0)
(1.36619 -1.35864 -4.76024e-19 0.754064 1.85447e-19 0)
(1.21446 0.30646 2.94576e-19 1.0499 1.57932e-19 0)
(-0.212274 0.136547 2.71647e-18 1.09803 6.16776e-19 0)
(0.0726362 0.918173 2.63765e-18 1.72718 1.63579e-18 0)
(1.28183 0.502938 -8.39101e-19 0.846391 -3.14702e-19 0)
(0.583927 0.870738 -2.51928e-19 1.32462 3.16368e-19 0)
(0.103188 0.501834 2.95712e-19 1.21901 -4.45582e-19 0)
(-0.0232924 -0.0406216 -6.47633e-19 1.04594 -1.13966e-18 0)
(0.0406717 0.943981 -2.72929e-19 1.80622 -1.50882e-19 0)
(0.894902 -0.831239 -4.92238e-19 1.14764 4.0891e-19 0)
(0.939249 0.515967 -3.04085e-19 1.15522 -7.62402e-19 0)
(0.847063 0.828341 5.25253e-19 1.11305 -6.05702e-20 0)
(1.03547 0.471406 7.44865e-19 0.884544 5.81897e-19 0)
(1.38334 -0.138872 3.71474e-19 0.747572 6.88745e-20 0)
(1.38372 -0.112874 -3.92975e-19 0.757711 -1.36885e-19 0)
(1.11353 0.581968 1.03355e-18 0.976951 7.38742e-19 0)
(1.10008 0.585713 1.1616e-18 0.983697 9.85919e-19 0)
(1.30141 0.191272 -7.58488e-19 0.839451 -3.0387e-19 0)
(0.260322 0.89268 -2.66313e-19 1.46159 -3.80886e-19 0)
(0.700961 0.737795 -5.49652e-19 1.22098 -2.60554e-19 0)
(1.03357 0.482451 -9.64202e-19 0.883324 6.11154e-19 0)
(0.852003 -1.01952 -1.28382e-18 1.18294 9.11566e-19 0)
(0.964716 0.478727 -3.65917e-19 1.17715 -2.46265e-20 0)
(-0.197481 -0.104207 2.06715e-19 1.01008 9.74964e-20 0)
(0.0227943 0.944058 -2.04375e-18 1.83346 -1.16067e-18 0)
(0.794308 0.698297 -6.86198e-19 1.16746 -5.81256e-20 0)
(2.32353 -1.88519 -9.04584e-19 -0.145061 -1.09094e-19 0)
(1.27448 -0.0683867 7.57371e-20 0.939821 3.56214e-19 0)
(0.0767704 0.760325 -4.14131e-19 1.58147 -4.37641e-19 0)
(1.50236 0.033645 1.08496e-19 0.579971 -1.74145e-19 0)
(0.0914201 0.490385 8.17846e-19 1.21385 -4.56433e-19 0)
(0.0283734 -0.523181 -3.26701e-19 0.898221 -1.05913e-18 0)
(-0.0103489 0.880212 2.4577e-18 1.86556 1.95883e-18 0)
(0.409561 -0.7043 -2.07408e-19 1.53242 3.5238e-19 0)
(0.622681 0.590665 4.96944e-19 1.27831 8.04926e-19 0)
(1.12001 0.693629 1.15559e-19 0.931522 -1.97786e-19 0)
(1.92526 -1.09493 -6.55719e-19 0.202613 1.23404e-19 0)
(1.33284 0.154003 1.01845e-18 0.900569 5.88742e-19 0)
(0.00712887 0.507094 1.46858e-18 1.2502 3.99094e-19 0)
(0.205418 0.804365 -1.06332e-18 1.53829 -8.26028e-19 0)
(0.671441 0.650299 -7.15044e-19 1.09838 -3.51443e-19 0)
(1.23234 0.348516 -1.4914e-18 0.762862 9.74845e-21 0)
(1.52128 -0.638051 -2.14728e-19 0.610124 1.40773e-19 0)
(1.26388 0.407982 -1.8116e-19 0.93032 -4.1467e-19 0)
(0.241693 0.903158 0 1.58293 0 0)
(0.753716 0.485357 -9.05178e-19 1.00394 3.88232e-19 0)
(0.0843005 -0.512032 -8.75816e-19 0.868972 4.44298e-19 0)
(-0.00673931 0.881946 -9.08852e-19 1.85715 -1.57249e-19 0)
(0.47218 -0.67865 1.88164e-21 1.51528 1.81831e-21 0)
(0.615725 0.59046 -6.23575e-19 1.28 -7.95355e-19 0)
(1.26926 0.0955474 1.79145e-19 0.85078 1.22911e-19 0)
(0.243675 0.923604 8.12168e-19 1.51641 4.0054e-19 0)
(0.268894 -0.318932 3.07449e-19 0.901575 1.01102e-18 0)
(-0.00541926 0.90374 -8.69249e-19 1.81949 -8.26041e-19 0)
(0.62099 -0.562857 -2.83062e-20 1.39722 3.28095e-19 0)
(0.644507 0.588314 0 1.25869 0 0)
(1.78713 -0.796027 -9.42939e-20 0.388463 3.87709e-20 0)
(1.33678 0.263773 -1.76302e-20 0.87578 -5.5501e-19 0)
(0.071204 0.534167 0 1.24423 0 0)
(0.270243 0.841308 -3.60421e-20 1.52474 2.89494e-19 0)
(1.37058 0.288819 -8.48713e-20 0.745307 -4.11526e-19 0)
(1.14389 0.645881 7.94424e-19 0.937206 8.57429e-21 0)
(1.23648 0.578632 1.54068e-19 0.876669 -3.57366e-21 0)
(1.25385 0.555886 2.5018e-19 0.852167 3.4157e-19 0)
(1.27545 0.104503 -1.2609e-19 0.840085 -2.04811e-19 0)
(0.256733 0.92625 9.59993e-19 1.50967 7.15982e-19 0)
(0.814707 0.697457 1.67707e-19 1.15628 -3.97752e-20 0)
(0.861101 0.808123 1.09945e-18 1.09094 9.35729e-19 0)
(0.83629 0.809019 -1.46362e-18 1.10164 -3.26493e-19 0)
(-0.398089 -0.331438 7.78732e-20 0.95097 -1.85721e-18 0)
(0.00177399 0.93648 -4.67643e-19 1.88873 -5.85302e-19 0)
(0.664723 -1.1309 2.42879e-18 1.37048 -1.76902e-18 0)
(0.877533 0.503119 1.99519e-19 1.2333 4.70164e-19 0)
(1.6412 -0.306963 -7.66168e-19 0.464567 2.70142e-20 0)
(1.36998 0.307099 -6.66504e-20 0.728734 -2.90294e-19 0)
(1.61132 -0.196219 -6.20681e-19 0.425483 2.94706e-19 0)
(1.21864 0.110285 7.40319e-19 0.905134 3.42435e-19 0)
(0.107137 0.814546 -2.75732e-19 1.46274 2.37543e-19 0)
(0.471689 0.711643 4.18919e-20 1.34311 -3.4097e-19 0)
(1.22066 0.606303 5.27879e-19 0.876465 -9.51291e-20 0)
(1.36302 0.228116 1.05696e-18 0.682016 1.43399e-19 0)
(0.141676 0.95448 6.90109e-19 1.66768 5.8886e-19 0)
(1.16363 -0.303358 -2.47894e-20 0.950104 1.47944e-19 0)
(0.906491 0.594441 2.95088e-20 1.10996 7.38482e-20 0)
(1.15647 0.671244 -5.11954e-19 0.912709 3.3555e-19 0)
(1.36563 0.31823 1.33358e-18 0.736174 -1.52411e-20 0)
(1.80459 -1.78645 2.18044e-18 0.347872 -5.44951e-19 0)
(1.30334 0.0936248 5.33368e-19 1.00406 -7.59441e-19 0)
(0.0516481 0.850503 5.6428e-19 1.66396 5.26057e-19 0)
(-0.187561 0.235895 -1.25549e-18 1.12906 3.47099e-19 0)
(-0.195091 -0.14815 -2.17554e-19 1.01652 -2.53446e-19 0)
(0.0212302 0.942866 -3.52368e-19 1.84177 -2.01366e-20 0)
(0.819432 -0.992532 7.03297e-19 1.22232 -4.23766e-19 0)
(0.933598 0.499091 7.02206e-19 1.18135 7.01747e-19 0)
(0.877207 0.749386 2.01085e-18 1.11186 1.12674e-18 0)
(1.41217 0.187992 -1.10916e-19 0.651568 9.80753e-20 0)
(1.52156 -0.027979 8.46513e-19 0.54799 -2.26816e-19 0)
(1.13128 0.678514 -7.66317e-19 0.92484 9.59588e-21 0)
(1.47786 -0.0572105 -4.12427e-19 0.656394 8.20307e-19 0)
(1.2342 0.53081 5.99198e-19 0.898287 2.32805e-19 0)
(0.422546 0.908165 1.69818e-19 1.44101 1.0319e-21 0)
(1.05924 -1.04487 3.08329e-19 1.00742 -3.02456e-19 0)
(1.04416 -0.990596 8.66973e-19 1.02077 -3.92177e-19 0)
(1.05301 0.453256 -4.90062e-19 1.11934 -2.79621e-19 0)
(1.068 0.445108 8.25358e-19 1.10803 2.61493e-19 0)
(1.32595 0.441575 -1.00024e-18 0.803703 -8.50245e-19 0)
(1.31305 0.173653 -5.02121e-19 0.675088 -2.76236e-19 0)
(1.31744 0.450749 -4.08871e-19 0.816933 -2.60345e-19 0)
(2.14104 -1.21271 1.7371e-18 0.0315872 -3.17756e-19 0)
(1.29642 0.0578716 -8.07914e-19 0.895568 -5.7459e-19 0)
(0.00926614 0.537778 -2.46907e-19 1.27634 3.77716e-19 0)
(0.199593 0.763908 0 1.51949 0 0)
(0.395125 0.88599 0 1.45973 0 0)
(0.660443 0.854605 1.25063e-19 1.26682 2.20053e-19 0)
(0.649877 0.860044 -1.02721e-18 1.27692 -9.19652e-20 0)
(0.941505 0.801741 -6.07165e-19 1.06979 -2.2552e-19 0)
(1.33014 0.334889 -5.30681e-19 0.821881 -3.86296e-19 0)
(1.33174 0.328622 -1.62322e-19 0.826098 -7.23471e-20 0)
(0.282138 0.78797 0 1.34807 0 0)
(0.272808 0.799929 0 1.35768 0 0)
(0.550205 0.811781 -1.13358e-20 1.33325 -2.62901e-19 0)
(0.545423 0.798141 -5.53145e-19 1.32881 -7.47549e-20 0)
(1.31528 0.431573 -5.8304e-19 0.800431 -3.2496e-19 0)
(1.26759 -0.32014 9.65319e-19 0.832432 -9.23048e-20 0)
(1.04979 0.564552 1.46172e-18 1.0353 5.80817e-19 0)
(0.21064 0.948407 -7.6326e-19 1.61731 -7.085e-19 0)
(0.0278669 0.383894 3.20288e-19 1.17583 2.71567e-18 0)
(0.020907 0.718271 1.80062e-18 1.58238 1.50225e-18 0)
(1.21036 -0.197098 0 0.933633 0 0)
(2.71258 -2.28684 0 -0.475374 0 0)
(0.0763186 -0.700479 5.7864e-20 0.838894 -2.00655e-18 0)
(-0.00564477 0.844854 -1.12281e-18 1.86473 -1.15093e-18 0)
(0.333089 -0.681405 7.7342e-19 1.61543 -1.20474e-18 0)
(0.542719 0.606814 0 1.2972 0 0)
(1.34511 0.278747 1.02041e-18 0.775436 4.53074e-19 0)
(0.703456 0.791572 -2.73756e-19 1.15169 -4.80453e-19 0)
(1.37905 0.305548 3.43491e-19 0.747505 2.34117e-19 0)
(1.13174 0.651209 -5.46425e-19 0.943775 -2.44369e-19 0)
(0.636642 0.902138 -2.86542e-19 1.27135 -4.55404e-19 0)
(1.26558 0.544014 -8.51945e-19 0.856016 -6.52822e-19 0)
(1.25297 0.551242 -1.41836e-18 0.855714 -6.55205e-19 0)
(2.09378 -0.817049 -2.29365e-18 0.04478 7.72127e-19 0)
(1.19289 0.0291731 -3.25751e-19 0.923172 -1.42115e-19 0)
(0.050505 0.679549 1.20333e-18 1.37513 4.67422e-19 0)
(0.279041 0.710743 -2.02051e-19 1.45079 -2.84356e-19 0)
(0.968073 0.746245 1.11564e-18 1.0532 5.31829e-19 0)
(1.81376 -0.96396 2.94544e-20 0.293829 -5.53162e-21 0)
(1.33752 0.210482 4.29461e-19 0.892373 -2.20988e-19 0)
(0.027852 0.510861 2.12379e-19 1.25232 7.07662e-19 0)
(0.23924 0.826324 -1.06781e-18 1.53901 -6.54493e-19 0)
(1.29388 -0.34217 5.01432e-19 0.843157 8.54149e-20 0)
(1.04705 0.564118 -1.40868e-18 1.03084 -1.3411e-19 0)
(0.211563 0.952132 3.01236e-19 1.62676 6.73554e-19 0)
(0.0778639 0.479635 4.00926e-19 1.21984 3.7403e-19 0)
(0.260624 0.713618 -1.35071e-18 1.29559 -3.96036e-19 0)
(1.51673 -0.46411 -2.56984e-19 0.615591 -9.82962e-22 0)
(1.50469 -0.493318 3.2981e-19 0.624217 2.89107e-21 0)
(1.26034 0.441939 7.38332e-19 0.914336 3.50399e-19 0)
(1.25107 0.446337 0 0.916788 0 0)
(0.290361 0.904676 6.83511e-19 1.54328 6.06291e-19 0)
(0.292729 0.909482 -8.33371e-19 1.55462 -5.58818e-19 0)
(0.633931 0.897658 -3.62464e-19 1.28113 3.84406e-19 0)
(1.21681 -0.56685 1.18423e-18 0.672981 1.38353e-18 0)
(0.560609 0.573612 -1.3015e-18 1.11241 1.74065e-19 0)
(1.52867 0.000787526 1.02742e-18 0.549112 6.22932e-20 0)
(1.12667 0.633214 5.84633e-19 0.901576 3.23486e-19 0)
(0.175357 0.651927 -2.322e-19 1.25722 -5.11785e-19 0)
(0.057133 0.612561 -7.02572e-19 1.48552 -7.71317e-19 0)
(0.847137 -0.136859 -6.83507e-19 0.918525 7.4207e-19 0)
(0.75668 0.463625 3.57047e-19 0.996038 3.91624e-19 0)
(-0.330769 -0.314747 1.53652e-18 0.934249 1.19226e-19 0)
(0.000596839 0.934701 1.3001e-18 1.88368 1.03527e-18 0)
(0.635983 -1.07603 5.66968e-19 1.37199 -4.17368e-19 0)
(0.864949 0.507265 -8.36919e-20 1.24278 -3.54987e-19 0)
(0.592395 0.758106 7.53867e-19 1.18651 9.23439e-20 0)
(-0.118964 0.0353126 0 1.04874 0 0)
(0.052663 0.944415 5.2569e-19 1.78586 5.58095e-19 0)
(0.0601009 0.943843 -2.80348e-19 1.7837 -1.74837e-19 0)
(-0.149138 0.0301059 6.61901e-19 1.07566 -2.05261e-19 0)
(0.759042 0.866736 4.76775e-19 1.20207 1.39728e-19 0)
(0.741363 0.86703 -9.52479e-19 1.20706 -4.01963e-19 0)
(0.507225 0.921304 -8.41359e-19 1.37463 -1.99028e-19 0)
(0.501869 0.926955 -5.92626e-19 1.38465 -5.17175e-19 0)
(0.903094 0.648473 -3.3141e-20 1.00086 -2.27667e-19 0)
(1.24231 0.502981 3.55192e-19 0.822036 4.6553e-19 0)
(1.25429 0.517301 -1.15193e-18 0.818947 2.86144e-19 0)
(0.581508 0.582896 -9.73611e-19 1.10367 -7.60397e-19 0)
(0.0184503 0.840038 -1.15955e-18 1.60019 -9.04668e-19 0)
(0.391114 0.625498 3.4491e-19 1.35277 4.27027e-19 0)
(0.790726 -0.136501 -4.2065e-19 1.19352 4.84822e-19 0)
(1.06546 -0.65586 1.19991e-19 0.697872 1.50917e-18 0)
(0.307085 0.63013 7.64778e-19 1.23248 -8.49247e-19 0)
(1.62967 -0.149933 9.81205e-19 0.493078 -3.00151e-19 0)
(0.755101 0.768625 0 1.11627 0 0)
(0.872666 0.748417 -8.84488e-19 1.05747 -2.85851e-19 0)
(0.854563 0.754518 6.8158e-19 1.06656 2.61176e-19 0)
(0.668774 0.852732 5.71246e-19 1.25676 6.22411e-19 0)
(0.466661 0.602669 1.63001e-19 1.15912 5.57296e-19 0)
(0.47859 0.618627 4.45002e-19 1.15807 -2.7866e-19 0)
(0.917756 0.609951 1.47569e-18 0.980182 2.01862e-19 0)
(0.787799 0.811221 -9.64843e-19 1.12617 -3.32649e-19 0)
(0.783015 0.802172 3.10473e-19 1.12465 -1.86648e-20 0)
(1.10281 0.123071 -2.10303e-19 0.740799 -5.96246e-20 0)
(1.14071 -0.0284377 3.00626e-19 0.958929 -2.77662e-19 0)
(0.119961 0.913736 -3.05712e-19 1.58414 -8.85575e-19 0)
(0.666952 0.662155 8.46034e-19 1.23109 8.57483e-20 0)
(0.80935 0.336755 2.51906e-19 0.93375 -6.04842e-20 0)
(0.800623 0.342162 -9.03916e-19 0.933396 6.20021e-19 0)
(1.20835 0.613607 -1.12484e-18 0.893331 -3.19977e-19 0)
(0.769465 0.865542 -1.38704e-18 1.18113 -7.12763e-19 0)
(1.39989 0.158154 -4.34003e-19 0.649214 2.79576e-19 0)
(1.40481 0.0349524 0 0.712707 0 0)
(1.42604 0.0590734 0 0.719401 0 0)
(1.14487 0.600389 -4.13634e-19 0.939394 -6.29579e-20 0)
(1.15442 0.596174 -2.98158e-19 0.947342 -3.44761e-19 0)
(0.899205 -1.24181 1.1867e-19 1.13572 -6.35941e-20 0)
(1.03184 0.429176 8.87135e-20 1.16966 -4.58643e-19 0)
(1.2859 0.492707 0 0.806955 0 0)
(1.665 -0.807002 -4.86675e-19 0.471857 1.45154e-19 0)
(1.31729 0.317578 -2.37694e-20 0.898849 -2.61412e-19 0)
(0.252051 0.871673 6.04846e-19 1.55892 4.99773e-19 0)
(0.0233102 -0.264731 5.16611e-19 0.979819 -1.19626e-18 0)
(0.00131225 0.922142 4.17032e-19 1.84598 5.37338e-19 0)
(0.659045 -0.73217 3.54773e-19 1.3548 -4.26208e-19 0)
(0.762288 0.565541 5.47667e-19 1.22785 3.72726e-19 0)
(1.34033 0.341326 1.47229e-19 0.801873 5.08548e-19 0)
(0.816095 0.764804 6.15898e-19 1.14797 3.77871e-20 0)
(0.160291 0.116245 -9.72497e-19 1.04805 -6.70696e-19 0)
(1.05416 -0.656189 3.1837e-19 1.02882 3.79531e-20 0)
(0.0804682 0.950027 1.84305e-18 1.75191 1.1176e-18 0)
(0.97262 0.525967 6.33977e-19 1.11405 3.71966e-19 0)
(1.56258 -0.0543233 8.88447e-19 0.519741 -1.15785e-19 0)
(1.53014 -0.0358806 -5.77699e-21 0.53934 2.66485e-19 0)
(1.38875 0.308125 2.74351e-19 0.722204 1.77095e-19 0)
(1.37124 0.291471 4.58454e-19 0.720898 -5.4435e-21 0)
(1.72358 -0.623521 -4.35609e-19 0.385625 2.79648e-20 0)
(1.33912 0.280943 -1.0847e-19 0.863442 -3.05845e-19 0)
(0.1163 0.598484 5.59078e-19 1.28241 5.02886e-19 0)
(0.32604 0.830583 -1.89974e-19 1.48568 2.84924e-19 0)
(1.36949 0.0799553 -7.79639e-20 0.753 4.91736e-19 0)
(1.06924 0.641818 7.23962e-19 0.996683 2.48608e-19 0)
(0.399474 0.937636 3.17114e-19 1.45977 5.25109e-19 0)
(0.70811 0.785656 -4.78918e-19 1.15026 1.09094e-19 0)
(1.173 0.639889 -1.13854e-18 0.904985 -4.22737e-19 0)
(0.666015 0.568308 4.45433e-19 1.07146 4.87563e-19 0)
(0.653716 0.561698 7.53587e-19 1.0679 6.23824e-19 0)
(1.45011 -0.0919517 -5.12836e-19 0.527333 2.89114e-19 0)
(1.1822 0.0543063 5.47195e-19 0.932063 4.04976e-19 0)
(0.11011 0.850691 1.28052e-18 1.51095 6.91527e-19 0)
(0.538211 0.697191 1.59305e-20 1.30889 -7.34966e-20 0)
(0.459184 0.505798 -1.19379e-21 1.11519 -5.32976e-19 0)
(1.77022 -1.53091 -1.35021e-19 0.313666 -6.85063e-20 0)
(1.77488 -1.47554 -1.42868e-19 0.346685 -1.45631e-19 0)
(1.32035 0.138953 1.90814e-19 0.968069 -9.51906e-19 0)
(1.31756 0.157332 -2.16749e-19 0.973639 6.37956e-20 0)
(-0.117892 0.319848 -9.00395e-19 1.1764 -5.09179e-19 0)
(-0.114018 0.320402 1.71461e-19 1.15943 5.23528e-19 0)
(0.109273 0.844372 -1.94304e-18 1.62848 -1.50887e-18 0)
(0.0999387 0.853253 0 1.63437 0 0)
(0.763863 0.871596 0 1.1892 0 0)
(0.916736 0.564624 -3.08359e-19 0.96259 -1.83103e-19 0)
(1.22038 0.608311 1.97283e-20 0.869371 -5.48115e-19 0)
(1.10169 0.682539 6.70349e-19 0.931331 -2.61991e-19 0)
(1.86435 -0.920294 2.71236e-18 0.305127 -7.14105e-19 0)
(1.341 0.215236 4.17554e-19 0.879739 4.36322e-19 0)
(0.0391151 0.523605 1.58958e-18 1.24818 1.15375e-18 0)
(0.246844 0.826855 -4.91904e-19 1.52928 -4.83814e-19 0)
(1.02868 0.679111 -6.73119e-19 0.963149 -5.39547e-19 0)
(1.73679 -1.73266 1.82086e-18 0.313868 -3.75757e-19 0)
(1.31263 0.10414 -1.5414e-19 1.00739 -3.67639e-19 0)
(0.0667468 0.847847 -3.20871e-19 1.65088 -3.51452e-19 0)
(-0.163632 0.260898 0 1.14981 0 0)
(1.3026 0.227969 3.84847e-20 0.840948 -1.31769e-20 0)
(0.205233 0.819772 -8.92754e-19 1.4182 -6.54392e-19 0)
(0.558322 0.76296 1.34413e-18 1.31766 1.10467e-18 0)
(0.824914 0.493879 2.89778e-20 0.973291 -3.83366e-19 0)
(1.07354 -0.0283581 1.70885e-19 1.00257 3.04337e-19 0)
(0.0726027 0.867807 -8.27601e-20 1.57035 4.11008e-19 0)
(0.547383 0.669445 -1.07525e-18 1.29972 -1.00802e-18 0)
(1.34682 0.354702 -6.79703e-19 0.766657 -2.41491e-19 0)
(0.515499 0.776196 2.35667e-18 1.23085 1.35045e-18 0)
(1.12014 0.636718 -1.38188e-19 0.909196 -2.96168e-19 0)
(2.24486 -1.84435 -1.03121e-18 -0.052925 2.43087e-19 0)
(1.29499 -0.0351315 -1.34925e-18 0.940213 -1.31661e-19 0)
(0.07699 0.779077 1.8186e-18 1.59623 1.44546e-18 0)
(1.03373 0.601039 6.51503e-19 0.927556 2.91672e-19 0)
(1.32983 0.270222 4.73514e-19 0.814056 -6.76912e-20 0)
(0.7531 0.749578 6.92546e-19 1.18675 2.76843e-19 0)
(2.09968 -1.80902 -1.74043e-18 0.0776699 3.22183e-19 0)
(1.31235 0.0125962 4.59221e-19 0.954666 -1.28918e-18 0)
(-0.0982572 0.336427 -1.22926e-18 1.16753 -5.08947e-19 0)
(0.0738533 0.805509 5.6731e-19 1.61286 4.90663e-19 0)
(1.16851 0.64521 3.09009e-19 0.894804 1.63227e-19 0)
(1.18932 0.638306 1.05976e-18 0.886157 2.04457e-19 0)
(1.36329 0.344655 -1.54591e-19 0.766471 -1.14079e-19 0)
(0.905284 0.816847 -1.67938e-19 1.08482 1.6345e-19 0)
(0.231046 0.0124698 2.43942e-18 1.00132 4.71949e-19 0)
(0.0552282 0.945258 -1.55846e-19 1.77253 -4.13621e-19 0)
(0.953708 -0.596937 -7.87165e-20 1.12539 1.93904e-19 0)
(0.868061 0.55645 6.7249e-19 1.15913 2.82308e-19 0)
(1.2033 0.610402 -8.6505e-19 0.89016 -2.3442e-19 0)
(0.910651 0.296345 3.74351e-19 0.873498 -4.63748e-19 0)
(1.16736 0.154477 0 0.723949 0 0)
(0.528146 0.201453 3.50892e-19 0.99444 -7.56685e-19 0)
(0.798578 0.48901 3.04456e-19 0.98415 -4.99114e-19 0)
(0.827965 -0.0742826 7.48832e-19 1.02954 7.52596e-20 0)
(1.33663 0.322564 7.61767e-20 0.794725 1.69185e-19 0)
(0.221475 -0.174971 4.33818e-19 0.96538 -9.83354e-19 0)
(0.00562393 0.924459 2.19916e-19 1.81215 -4.5486e-19 0)
(0.7044 -0.585954 -2.59652e-19 1.29263 7.16048e-20 0)
(0.740024 0.573964 -1.28613e-18 1.22634 -5.61828e-19 0)
(1.1898 0.636209 9.18413e-19 0.887721 6.33244e-19 0)
(-0.195664 -0.0622281 -1.48962e-18 1.02206 -1.24938e-18 0)
(0.0277697 0.944661 7.68716e-19 1.82042 5.25102e-19 0)
(1.05816 0.590829 1.29513e-18 0.916524 9.17286e-20 0)
(0.441718 0.858539 -7.79467e-19 1.32442 -9.36402e-19 0)
(0.0799835 0.928364 -7.98716e-19 1.65935 -2.22843e-19 0)
(1.03061 -0.176166 7.1857e-19 1.03246 7.57528e-20 0)
(0.716832 0.629263 -8.43534e-19 1.20983 -7.35964e-20 0)
(1.45113 -1.28689 -8.2964e-19 0.613425 2.67575e-19 0)
(1.26309 0.285714 -1.21674e-19 1.01221 -3.3475e-19 0)
(-0.132345 0.238073 -1.51195e-18 1.14075 -1.27153e-18 0)
(0.107006 0.899949 1.56128e-18 1.68106 1.07299e-18 0)
(0.587745 0.907083 -5.51498e-20 1.3159 -2.27168e-19 0)
(1.0331 -1.1861 0 1.02652 0 0)
(1.07936 0.418189 -1.04829e-19 1.12745 -1.40753e-19 0)
(1.01899 -1.21867 7.16609e-19 1.04224 -3.84523e-19 0)
(1.07299 0.409281 -9.5332e-19 1.14189 -2.20521e-19 0)
(0.86529 0.826987 4.90165e-19 1.10329 6.16779e-19 0)
(0.864312 0.819682 2.69549e-20 1.09769 3.46907e-19 0)
(1.31792 0.105061 1.49208e-19 0.81544 -3.07605e-19 0)
(0.303594 0.943106 2.78152e-20 1.50029 5.56445e-19 0)
(0.89646 0.681419 4.65394e-19 1.09882 3.45041e-19 0)
(1.44615 -0.176597 1.1566e-18 0.689729 1.63575e-19 0)
(1.19435 0.53349 1.60486e-19 0.932594 4.25284e-19 0)
(0.347593 0.922713 6.5358e-19 1.50243 2.79212e-19 0)
(1.29885 0.492837 -6.72471e-19 0.829892 1.37576e-19 0)
(0.8491 0.559522 -2.6848e-19 0.990828 3.2733e-19 0)
(0.83316 0.567792 -7.75126e-19 0.999946 -1.09433e-19 0)
(0.555928 0.92076 -5.37384e-19 1.33851 -2.36394e-19 0)
(0.118073 0.93334 8.73148e-19 1.62526 5.75832e-19 0)
(0.740976 0.640918 -6.72388e-19 1.1919 2.35163e-19 0)