/*--------------------------------*- C++ -*----------------------------------*\
| =========                 |                                                 |
| \\      /  F ield         | OpenFOAM: The Open Source CFD Toolbox           |
|  \\    /   O peration     | Version:  2312                                  |
|   \\  /    A nd           | Website:  www.openfoam.com                      |
|    \\/     M anipulation  |                                                 |
\*---------------------------------------------------------------------------*/
FoamFile
{
    version     2.0;
    format      ascii;
    arch        "LSB;label=32;scalar=64";
    class       pointVectorField;
    location    "1";
    object      pointD;
}
// * * * * * * * * * * * * * * * * * * * * * * * * * * * * * * * * * * * * * //

dimensions      [0 1 0 0 0 0 0];

internalField   nonuniform List<vector> 
26928
(
(-0.00023372 1.09842 0)
(0.000434684 0.593027 0)
(2.28338 1.58749 0)
(0.840387 2.22883 0)
(0.840387 2.22883 0)
(-0.00023372 1.09842 0)
(0.000434684 0.593027 0)
(2.28338 1.58749 0)
(4.1539e-05 1.09866 0)
(3.33986e-05 1.09839 0)
(3.12223e-05 1.09813 0)
(3.0795e-05 1.09775 0)
(4.53096e-05 1.09725 0)
(3.62707e-05 1.09667 0)
(5.6492e-06 1.09594 0)
(1.69529e-05 1.09511 0)
(2.6391e-05 1.09418 0)
(1.4729e-05 1.09314 0)
(3.74818e-06 1.09198 0)
(1.12233e-05 1.09073 0)
(1.95223e-05 1.08937 0)
(3.26596e-05 1.08789 0)
(-2.00027e-06 1.08629 0)
(5.89694e-06 1.0846 0)
(1.38801e-05 1.08278 0)
(1.15124e-05 1.08087 0)
(8.92238e-06 1.07887 0)
(9.34412e-06 1.07673 0)
(1.65915e-05 1.07449 0)
(2.98932e-05 1.07216 0)
(3.52778e-05 1.06972 0)
(6.65235e-06 1.06714 0)
(9.21354e-06 1.06447 0)
(1.00576e-05 1.0617 0)
(1.13557e-05 1.05882 0)
(6.09884e-06 1.05585 0)
(2.01631e-06 1.05275 0)
(7.81547e-06 1.04956 0)
(1.06121e-05 1.04626 0)
(1.09799e-05 1.04287 0)
(7.15513e-06 1.03934 0)
(8.12689e-06 1.03574 0)
(1.85622e-05 1.03203 0)
(1.23443e-05 1.02821 0)
(8.25383e-06 1.02428 0)
(1.19702e-05 1.02026 0)
(1.85143e-05 1.01615 0)
(2.03433e-06 1.01189 0)
(1.41007e-05 1.00759 0)
(2.27059e-05 1.00316 0)
(5.42857e-06 0.998618 0)
(9.25932e-06 0.993986 0)
(1.84535e-05 0.989267 0)
(8.57283e-06 0.984423 0)
(8.65875e-06 0.979503 0)
(1.23116e-05 0.974487 0)
(1.64617e-05 0.969362 0)
(3.18679e-06 0.964132 0)
(8.32461e-06 0.958826 0)
(1.19106e-05 0.953414 0)
(1.67105e-05 0.947912 0)
(7.52704e-06 0.942318 0)
(6.50815e-07 0.936616 0)
(1.36119e-06 0.930814 0)
(5.7496e-06 0.92494 0)
(6.6933e-06 0.918966 0)
(8.14669e-06 0.912896 0)
(5.84622e-06 0.906751 0)
(2.42123e-06 0.900492 0)
(2.33392e-06 0.894154 0)
(2.74006e-06 0.887727 0)
(2.65426e-06 0.881209 0)
(1.73636e-06 0.874606 0)
(2.28976e-06 0.867927 0)
(-2.6475e-06 0.861139 0)
(6.2866e-07 0.854274 0)
(-4.79621e-06 0.847325 0)
(-6.14864e-06 0.840299 0)
(-6.27465e-06 0.833164 0)
(-4.33359e-06 0.825972 0)
(-7.78892e-06 0.818693 0)
(-1.19519e-05 0.811314 0)
(-1.06142e-05 0.803878 0)
(-1.72269e-05 0.796353 0)
(-1.94829e-05 0.788732 0)
(-2.07547e-05 0.781044 0)
(-1.33624e-05 0.773282 0)
(-2.07054e-05 0.765439 0)
(-1.5027e-05 0.757507 0)
(-2.24089e-05 0.749532 0)
(-2.68102e-05 0.741463 0)
(-1.78124e-05 0.7333 0)
(-2.97834e-05 0.725084 0)
(-4.96754e-05 0.716816 0)
(-2.64658e-05 0.708444 0)
(-2.56236e-05 0.700004 0)
(-2.44476e-05 0.691498 0)
(-5.48218e-05 0.682953 0)
(-8.0121e-05 0.674342 0)
(-7.02325e-05 0.665617 0)
(-6.63511e-05 0.656823 0)
(-0.000141049 0.648026 0)
(-0.000108617 0.639119 0)
(-8.82102e-05 0.630145 0)
(-0.00010132 0.621076 0)
(-0.000121753 0.612012 0)
(-0.000134698 0.603038 0)
(0.0269128 0.605535 0)
(0.0543767 0.617331 0)
(0.0815041 0.629108 0)
(0.108698 0.640879 0)
(0.135814 0.652699 0)
(0.162949 0.664474 0)
(0.190126 0.676087 0)
(0.217233 0.68785 0)
(0.244327 0.699598 0)
(0.271377 0.711268 0)
(0.29841 0.722894 0)
(0.325421 0.734554 0)
(0.352348 0.746235 0)
(0.379316 0.75794 0)
(0.406247 0.769455 0)
(0.433068 0.781073 0)
(0.459955 0.792679 0)
(0.486688 0.804239 0)
(0.513374 0.81571 0)
(0.540069 0.827213 0)
(0.566681 0.838697 0)
(0.593211 0.850161 0)
(0.619748 0.86165 0)
(0.646225 0.872997 0)
(0.672544 0.884357 0)
(0.698889 0.895675 0)
(0.725092 0.906996 0)
(0.751232 0.918239 0)
(0.77738 0.929495 0)
(0.803349 0.940714 0)
(0.829315 0.951882 0)
(0.855146 0.96303 0)
(0.880898 0.974116 0)
(0.906568 0.985138 0)
(0.932135 0.996187 0)
(0.957653 1.00718 0)
(0.983005 1.01813 0)
(1.00835 1.02903 0)
(1.03354 1.03991 0)
(1.05859 1.05071 0)
(1.08358 1.06147 0)
(1.10848 1.07227 0)
(1.13328 1.08292 0)
(1.15789 1.09358 0)
(1.18248 1.10415 0)
(1.20683 1.11471 0)
(1.23114 1.12517 0)
(1.25533 1.13565 0)
(1.27936 1.14603 0)
(1.30326 1.15637 0)
(1.32707 1.16664 0)
(1.35073 1.17691 0)
(1.37424 1.18711 0)
(1.39768 1.19733 0)
(1.42096 1.20732 0)
(1.44399 1.21733 0)
(1.46694 1.22726 0)
(1.48976 1.23719 0)
(1.5124 1.24704 0)
(1.53498 1.25687 0)
(1.5573 1.26654 0)
(1.57951 1.27622 0)
(1.60158 1.28583 0)
(1.62345 1.29537 0)
(1.64515 1.30483 0)
(1.66679 1.31427 0)
(1.68815 1.32363 0)
(1.70936 1.33288 0)
(1.73042 1.34214 0)
(1.75135 1.35135 0)
(1.77199 1.36031 0)
(1.79255 1.36932 0)
(1.81293 1.37831 0)
(1.83303 1.38717 0)
(1.85307 1.39595 0)
(1.87289 1.40473 0)
(1.89243 1.41335 0)
(1.91184 1.42196 0)
(1.93108 1.43039 0)
(1.95011 1.43883 0)
(1.96889 1.44715 0)
(1.98763 1.45549 0)
(2.00608 1.46369 0)
(2.02423 1.47175 0)
(2.04228 1.47985 0)
(2.06023 1.48798 0)
(2.07783 1.4957 0)
(2.0952 1.50347 0)
(2.11238 1.51119 0)
(2.12949 1.51903 0)
(2.1464 1.52673 0)
(2.16286 1.53411 0)
(2.17915 1.54145 0)
(2.19552 1.54918 0)
(2.21138 1.55631 0)
(2.22714 1.56334 0)
(2.24237 1.57049 0)
(2.25771 1.57758 0)
(2.27409 1.58464 0)
(2.2433 1.60392 0)
(2.19965 1.61361 0)
(2.15712 1.62539 0)
(2.11583 1.63657 0)
(2.07625 1.64832 0)
(2.03761 1.65953 0)
(1.99898 1.67027 0)
(1.9625 1.6814 0)
(1.92705 1.69235 0)
(1.89228 1.70333 0)
(1.85839 1.71407 0)
(1.82573 1.72475 0)
(1.79417 1.73566 0)
(1.76377 1.74606 0)
(1.73344 1.7563 0)
(1.70446 1.76689 0)
(1.67641 1.77694 0)
(1.64902 1.78733 0)
(1.6221 1.79739 0)
(1.5962 1.8073 0)
(1.57102 1.81724 0)
(1.54658 1.8271 0)
(1.52309 1.83681 0)
(1.4998 1.84616 0)
(1.47723 1.8559 0)
(1.45536 1.86511 0)
(1.43414 1.8746 0)
(1.41335 1.88368 0)
(1.3934 1.89271 0)
(1.37388 1.90185 0)
(1.35492 1.91057 0)
(1.33648 1.91943 0)
(1.31851 1.9281 0)
(1.30101 1.9366 0)
(1.28407 1.9451 0)
(1.26765 1.95334 0)
(1.25165 1.9617 0)
(1.23614 1.9697 0)
(1.22098 1.97772 0)
(1.20628 1.98567 0)
(1.19196 1.99338 0)
(1.17823 2.00107 0)
(1.16475 2.00849 0)
(1.15162 2.01606 0)
(1.13892 2.02326 0)
(1.12652 2.03055 0)
(1.11452 2.03756 0)
(1.10287 2.04449 0)
(1.09151 2.05133 0)
(1.08057 2.0581 0)
(1.06991 2.06461 0)
(1.05961 2.07109 0)
(1.04959 2.0775 0)
(1.04004 2.08358 0)
(1.03053 2.08966 0)
(1.02132 2.09575 0)
(1.01249 2.10154 0)
(1.0039 2.10729 0)
(0.995601 2.11288 0)
(0.987655 2.1183 0)
(0.979829 2.1236 0)
(0.97231 2.12886 0)
(0.96504 2.13394 0)
(0.958001 2.13889 0)
(0.95123 2.14368 0)
(0.944752 2.14837 0)
(0.938421 2.15301 0)
(0.932336 2.15735 0)
(0.926486 2.16171 0)
(0.920952 2.1658 0)
(0.915427 2.16983 0)
(0.910227 2.17378 0)
(0.905228 2.1775 0)
(0.900437 2.18119 0)
(0.89589 2.18465 0)
(0.891502 2.18799 0)
(0.887309 2.19132 0)
(0.88337 2.19432 0)
(0.87954 2.19724 0)
(0.875879 2.20014 0)
(0.872491 2.20278 0)
(0.869307 2.20534 0)
(0.866263 2.20781 0)
(0.863375 2.21003 0)
(0.86068 2.21219 0)
(0.858355 2.21416 0)
(0.855941 2.21598 0)
(0.853744 2.21779 0)
(0.851791 2.21937 0)
(0.850074 2.22082 0)
(0.848519 2.22213 0)
(0.847044 2.2233 0)
(0.845742 2.22434 0)
(0.844852 2.22514 0)
(0.843903 2.22593 0)
(0.84303 2.22663 0)
(0.842475 2.22711 0)
(0.842067 2.2275 0)
(0.841829 2.2272 0)
(0.836519 2.21956 0)
(0.830508 2.21155 0)
(0.824911 2.20344 0)
(0.819272 2.19524 0)
(0.813481 2.18688 0)
(0.807665 2.17846 0)
(0.801644 2.17014 0)
(0.79564 2.16154 0)
(0.789548 2.15286 0)
(0.78336 2.14416 0)
(0.77708 2.1354 0)
(0.770762 2.1265 0)
(0.764374 2.1175 0)
(0.757874 2.10836 0)
(0.751275 2.09927 0)
(0.744656 2.09004 0)
(0.737951 2.08069 0)
(0.731173 2.07128 0)
(0.724299 2.06184 0)
(0.717368 2.05228 0)
(0.71037 2.04265 0)
(0.703297 2.03295 0)
(0.69616 2.0231 0)
(0.688916 2.01324 0)
(0.681661 2.00332 0)
(0.674291 1.9933 0)
(0.666894 1.98321 0)
(0.659377 1.97306 0)
(0.651835 1.96279 0)
(0.644237 1.95249 0)
(0.63654 1.9421 0)
(0.628798 1.93165 0)
(0.620999 1.92113 0)
(0.613121 1.91054 0)
(0.60519 1.89989 0)
(0.597186 1.88914 0)
(0.589162 1.87835 0)
(0.581039 1.86747 0)
(0.572864 1.85655 0)
(0.564664 1.84555 0)
(0.556346 1.8345 0)
(0.54803 1.82336 0)
(0.539622 1.81215 0)
(0.531201 1.80092 0)
(0.522683 1.78961 0)
(0.514156 1.77825 0)
(0.505537 1.76681 0)
(0.496874 1.75533 0)
(0.488174 1.7438 0)
(0.479442 1.73218 0)
(0.470618 1.72052 0)
(0.461778 1.70881 0)
(0.452896 1.69705 0)
(0.443929 1.68519 0)
(0.434956 1.67331 0)
(0.425956 1.66141 0)
(0.416867 1.64942 0)
(0.407768 1.6374 0)
(0.398612 1.62532 0)
(0.389418 1.61318 0)
(0.380177 1.60101 0)
(0.370925 1.58879 0)
(0.361621 1.57653 0)
(0.35228 1.56422 0)
(0.342892 1.55186 0)
(0.333485 1.53946 0)
(0.324065 1.52702 0)
(0.31456 1.51453 0)
(0.305069 1.50202 0)
(0.295519 1.48945 0)
(0.285953 1.47684 0)
(0.276358 1.4642 0)
(0.266724 1.45154 0)
(0.257091 1.43882 0)
(0.247401 1.42606 0)
(0.237698 1.4133 0)
(0.22799 1.40047 0)
(0.218226 1.38763 0)
(0.20845 1.37474 0)
(0.198686 1.36184 0)
(0.188857 1.3489 0)
(0.179026 1.33593 0)
(0.1692 1.32293 0)
(0.159308 1.3099 0)
(0.149442 1.29686 0)
(0.139548 1.2838 0)
(0.129638 1.27069 0)
(0.119726 1.25756 0)
(0.109772 1.24442 0)
(0.0998326 1.23127 0)
(0.0898959 1.21809 0)
(0.0799221 1.20488 0)
(0.0699443 1.19164 0)
(0.0599843 1.17844 0)
(0.0499876 1.16518 0)
(0.0400082 1.15188 0)
(0.0299884 1.1386 0)
(0.0199985 1.1253 0)
(0.0100859 1.11199 0)
(0.836519 2.21956 0)
(0.830508 2.21155 0)
(0.824911 2.20344 0)
(0.819272 2.19524 0)
(0.813481 2.18688 0)
(0.807665 2.17846 0)
(0.801644 2.17014 0)
(0.79564 2.16154 0)
(0.789548 2.15286 0)
(0.78336 2.14416 0)
(0.77708 2.1354 0)
(0.770762 2.1265 0)
(0.764374 2.1175 0)
(0.757874 2.10836 0)
(0.751275 2.09927 0)
(0.744656 2.09004 0)
(0.737951 2.08069 0)
(0.731173 2.07128 0)
(0.724299 2.06184 0)
(0.717368 2.05228 0)
(0.71037 2.04265 0)
(0.703297 2.03295 0)
(0.69616 2.0231 0)
(0.688916 2.01324 0)
(0.681661 2.00332 0)
(0.674291 1.9933 0)
(0.666894 1.98321 0)
(0.659377 1.97306 0)
(0.651835 1.96279 0)
(0.644237 1.95249 0)
(0.63654 1.9421 0)
(0.628798 1.93165 0)
(0.620999 1.92113 0)
(0.613121 1.91054 0)
(0.60519 1.89989 0)
(0.597186 1.88914 0)
(0.589162 1.87835 0)
(0.581039 1.86747 0)
(0.572864 1.85655 0)
(0.564664 1.84555 0)
(0.556346 1.8345 0)
(0.54803 1.82336 0)
(0.539622 1.81215 0)
(0.531201 1.80092 0)
(0.522683 1.78961 0)
(0.514156 1.77825 0)
(0.505537 1.76681 0)
(0.496874 1.75533 0)
(0.488174 1.7438 0)
(0.479442 1.73218 0)
(0.470618 1.72052 0)
(0.461778 1.70881 0)
(0.452896 1.69705 0)
(0.443929 1.68519 0)
(0.434956 1.67331 0)
(0.425956 1.66141 0)
(0.416867 1.64942 0)
(0.407768 1.6374 0)
(0.398612 1.62532 0)
(0.389418 1.61318 0)
(0.380177 1.60101 0)
(0.370925 1.58879 0)
(0.361621 1.57653 0)
(0.35228 1.56422 0)
(0.342892 1.55186 0)
(0.333485 1.53946 0)
(0.324065 1.52702 0)
(0.31456 1.51453 0)
(0.305069 1.50202 0)
(0.295519 1.48945 0)
(0.285953 1.47684 0)
(0.276358 1.4642 0)
(0.266724 1.45154 0)
(0.257091 1.43882 0)
(0.247401 1.42606 0)
(0.237698 1.4133 0)
(0.22799 1.40047 0)
(0.218226 1.38763 0)
(0.20845 1.37474 0)
(0.198686 1.36184 0)
(0.188857 1.3489 0)
(0.179026 1.33593 0)
(0.1692 1.32293 0)
(0.159308 1.3099 0)
(0.149442 1.29686 0)
(0.139548 1.2838 0)
(0.129638 1.27069 0)
(0.119726 1.25756 0)
(0.109772 1.24442 0)
(0.0998326 1.23127 0)
(0.0898959 1.21809 0)
(0.0799221 1.20488 0)
(0.0699443 1.19164 0)
(0.0599843 1.17844 0)
(0.0499876 1.16518 0)
(0.0400082 1.15188 0)
(0.0299884 1.1386 0)
(0.0199985 1.1253 0)
(0.0100859 1.11199 0)
(4.1539e-05 1.09866 0)
(3.33986e-05 1.09839 0)
(3.12223e-05 1.09813 0)
(3.0795e-05 1.09775 0)
(4.53096e-05 1.09725 0)
(3.62707e-05 1.09667 0)
(5.6492e-06 1.09594 0)
(1.69529e-05 1.09511 0)
(2.6391e-05 1.09418 0)
(1.4729e-05 1.09314 0)
(3.74818e-06 1.09198 0)
(1.12233e-05 1.09073 0)
(1.95223e-05 1.08937 0)
(3.26596e-05 1.08789 0)
(-2.00027e-06 1.08629 0)
(5.89694e-06 1.0846 0)
(1.38801e-05 1.08278 0)
(1.15124e-05 1.08087 0)
(8.92238e-06 1.07887 0)
(9.34412e-06 1.07673 0)
(1.65915e-05 1.07449 0)
(2.98932e-05 1.07216 0)
(3.52778e-05 1.06972 0)
(6.65235e-06 1.06714 0)
(9.21354e-06 1.06447 0)
(1.00576e-05 1.0617 0)
(1.13557e-05 1.05882 0)
(6.09884e-06 1.05585 0)
(2.01631e-06 1.05275 0)
(7.81547e-06 1.04956 0)
(1.06121e-05 1.04626 0)
(1.09799e-05 1.04287 0)
(7.15513e-06 1.03934 0)
(8.12689e-06 1.03574 0)
(1.85622e-05 1.03203 0)
(1.23443e-05 1.02821 0)
(8.25383e-06 1.02428 0)
(1.19702e-05 1.02026 0)
(1.85143e-05 1.01615 0)
(2.03433e-06 1.01189 0)
(1.41007e-05 1.00759 0)
(2.27059e-05 1.00316 0)
(5.42857e-06 0.998618 0)
(9.25932e-06 0.993986 0)
(1.84535e-05 0.989267 0)
(8.57283e-06 0.984423 0)
(8.65875e-06 0.979503 0)
(1.23116e-05 0.974487 0)
(1.64617e-05 0.969362 0)
(3.18679e-06 0.964132 0)
(8.32461e-06 0.958826 0)
(1.19106e-05 0.953414 0)
(1.67105e-05 0.947912 0)
(7.52704e-06 0.942318 0)
(6.50815e-07 0.936616 0)
(1.36119e-06 0.930814 0)
(5.7496e-06 0.92494 0)
(6.6933e-06 0.918966 0)
(8.14669e-06 0.912896 0)
(5.84622e-06 0.906751 0)
(2.42123e-06 0.900492 0)
(2.33392e-06 0.894154 0)
(2.74006e-06 0.887727 0)
(2.65426e-06 0.881209 0)
(1.73636e-06 0.874606 0)
(2.28976e-06 0.867927 0)
(-2.6475e-06 0.861139 0)
(6.2866e-07 0.854274 0)
(-4.79621e-06 0.847325 0)
(-6.14864e-06 0.840299 0)
(-6.27465e-06 0.833164 0)
(-4.33359e-06 0.825972 0)
(-7.78892e-06 0.818693 0)
(-1.19519e-05 0.811314 0)
(-1.06142e-05 0.803878 0)
(-1.72269e-05 0.796353 0)
(-1.94829e-05 0.788732 0)
(-2.07547e-05 0.781044 0)
(-1.33624e-05 0.773282 0)
(-2.07054e-05 0.765439 0)
(-1.5027e-05 0.757507 0)
(-2.24089e-05 0.749532 0)
(-2.68102e-05 0.741463 0)
(-1.78124e-05 0.7333 0)
(-2.97834e-05 0.725084 0)
(-4.96754e-05 0.716816 0)
(-2.64658e-05 0.708444 0)
(-2.56236e-05 0.700004 0)
(-2.44476e-05 0.691498 0)
(-5.48218e-05 0.682953 0)
(-8.0121e-05 0.674342 0)
(-7.02325e-05 0.665617 0)
(-6.63511e-05 0.656823 0)
(-0.000141049 0.648026 0)
(-0.000108617 0.639119 0)
(-8.82102e-05 0.630145 0)
(-0.00010132 0.621076 0)
(-0.000121753 0.612012 0)
(-0.000134698 0.603038 0)
(0.0269128 0.605535 0)
(0.0543767 0.617331 0)
(0.0815041 0.629108 0)
(0.108698 0.640879 0)
(0.135814 0.652699 0)
(0.162949 0.664474 0)
(0.190126 0.676087 0)
(0.217233 0.68785 0)
(0.244327 0.699598 0)
(0.271377 0.711268 0)
(0.29841 0.722894 0)
(0.325421 0.734554 0)
(0.352348 0.746235 0)
(0.379316 0.75794 0)
(0.406247 0.769455 0)
(0.433068 0.781073 0)
(0.459955 0.792679 0)
(0.486688 0.804239 0)
(0.513374 0.81571 0)
(0.540069 0.827213 0)
(0.566681 0.838697 0)
(0.593211 0.850161 0)
(0.619748 0.86165 0)
(0.646225 0.872997 0)
(0.672544 0.884357 0)
(0.698889 0.895675 0)
(0.725092 0.906996 0)
(0.751232 0.918239 0)
(0.77738 0.929495 0)
(0.803349 0.940714 0)
(0.829315 0.951882 0)
(0.855146 0.96303 0)
(0.880898 0.974116 0)
(0.906568 0.985138 0)
(0.932135 0.996187 0)
(0.957653 1.00718 0)
(0.983005 1.01813 0)
(1.00835 1.02903 0)
(1.03354 1.03991 0)
(1.05859 1.05071 0)
(1.08358 1.06147 0)
(1.10848 1.07227 0)
(1.13328 1.08292 0)
(1.15789 1.09358 0)
(1.18248 1.10415 0)
(1.20683 1.11471 0)
(1.23114 1.12517 0)
(1.25533 1.13565 0)
(1.27936 1.14603 0)
(1.30326 1.15637 0)
(1.32707 1.16664 0)
(1.35073 1.17691 0)
(1.37424 1.18711 0)
(1.39768 1.19733 0)
(1.42096 1.20732 0)
(1.44399 1.21733 0)
(1.46694 1.22726 0)
(1.48976 1.23719 0)
(1.5124 1.24704 0)
(1.53498 1.25687 0)
(1.5573 1.26654 0)
(1.57951 1.27622 0)
(1.60158 1.28583 0)
(1.62345 1.29537 0)
(1.64515 1.30483 0)
(1.66679 1.31427 0)
(1.68815 1.32363 0)
(1.70936 1.33288 0)
(1.73042 1.34214 0)
(1.75135 1.35135 0)
(1.77199 1.36031 0)
(1.79255 1.36932 0)
(1.81293 1.37831 0)
(1.83303 1.38717 0)
(1.85307 1.39595 0)
(1.87289 1.40473 0)
(1.89243 1.41335 0)
(1.91184 1.42196 0)
(1.93108 1.43039 0)
(1.95011 1.43883 0)
(1.96889 1.44715 0)
(1.98763 1.45549 0)
(2.00608 1.46369 0)
(2.02423 1.47175 0)
(2.04228 1.47985 0)
(2.06023 1.48798 0)
(2.07783 1.4957 0)
(2.0952 1.50347 0)
(2.11238 1.51119 0)
(2.12949 1.51903 0)
(2.1464 1.52673 0)
(2.16286 1.53411 0)
(2.17915 1.54145 0)
(2.19552 1.54918 0)
(2.21138 1.55631 0)
(2.22714 1.56334 0)
(2.24237 1.57049 0)
(2.25771 1.57758 0)
(2.27409 1.58464 0)
(2.2433 1.60392 0)
(2.19965 1.61361 0)
(2.15712 1.62539 0)
(2.11583 1.63657 0)
(2.07625 1.64832 0)
(2.03761 1.65953 0)
(1.99898 1.67027 0)
(1.9625 1.6814 0)
(1.92705 1.69235 0)
(1.89228 1.70333 0)
(1.85839 1.71407 0)
(1.82573 1.72475 0)
(1.79417 1.73566 0)
(1.76377 1.74606 0)
(1.73344 1.7563 0)
(1.70446 1.76689 0)
(1.67641 1.77694 0)
(1.64902 1.78733 0)
(1.6221 1.79739 0)
(1.5962 1.8073 0)
(1.57102 1.81724 0)
(1.54658 1.8271 0)
(1.52309 1.83681 0)
(1.4998 1.84616 0)
(1.47723 1.8559 0)
(1.45536 1.86511 0)
(1.43414 1.8746 0)
(1.41335 1.88368 0)
(1.3934 1.89271 0)
(1.37388 1.90185 0)
(1.35492 1.91057 0)
(1.33648 1.91943 0)
(1.31851 1.9281 0)
(1.30101 1.9366 0)
(1.28407 1.9451 0)
(1.26765 1.95334 0)
(1.25165 1.9617 0)
(1.23614 1.9697 0)
(1.22098 1.97772 0)
(1.20628 1.98567 0)
(1.19196 1.99338 0)
(1.17823 2.00107 0)
(1.16475 2.00849 0)
(1.15162 2.01606 0)
(1.13892 2.02326 0)
(1.12652 2.03055 0)
(1.11452 2.03756 0)
(1.10287 2.04449 0)
(1.09151 2.05133 0)
(1.08057 2.0581 0)
(1.06991 2.06461 0)
(1.05961 2.07109 0)
(1.04959 2.0775 0)
(1.04004 2.08358 0)
(1.03053 2.08966 0)
(1.02132 2.09575 0)
(1.01249 2.10154 0)
(1.0039 2.10729 0)
(0.995601 2.11288 0)
(0.987655 2.1183 0)
(0.979829 2.1236 0)
(0.97231 2.12886 0)
(0.96504 2.13394 0)
(0.958001 2.13889 0)
(0.95123 2.14368 0)
(0.944752 2.14837 0)
(0.938421 2.15301 0)
(0.932336 2.15735 0)
(0.926486 2.16171 0)
(0.920952 2.1658 0)
(0.915427 2.16983 0)
(0.910227 2.17378 0)
(0.905228 2.1775 0)
(0.900437 2.18119 0)
(0.89589 2.18465 0)
(0.891502 2.18799 0)
(0.887309 2.19132 0)
(0.88337 2.19432 0)
(0.87954 2.19724 0)
(0.875879 2.20014 0)
(0.872491 2.20278 0)
(0.869307 2.20534 0)
(0.866263 2.20781 0)
(0.863375 2.21003 0)
(0.86068 2.21219 0)
(0.858355 2.21416 0)
(0.855941 2.21598 0)
(0.853744 2.21779 0)
(0.851791 2.21937 0)
(0.850074 2.22082 0)
(0.848519 2.22213 0)
(0.847044 2.2233 0)
(0.845742 2.22434 0)
(0.844852 2.22514 0)
(0.843903 2.22593 0)
(0.84303 2.22663 0)
(0.842475 2.22711 0)
(0.842067 2.2275 0)
(0.841829 2.2272 0)
(1.0613 1.6666 0)
(1.59736 1.78903 0)
(1.03539 1.85964 0)
(0.754609 1.32522 0)
(0.522626 1.46915 0)
(1.34191 1.89516 0)
(0.746912 1.69263 0)
(1.28759 1.5286 0)
(0.503154 1.32372 0)
(1.86033 1.78265 0)
(0.931123 1.98635 0)
(0.455115 1.03569 0)
(0.259572 1.33137 0)
(1.34367 1.7827 0)
(0.994015 1.74063 0)
(1.05367 1.54977 0)
(0.747279 1.52532 0)
(1.5445 1.89554 0)
(0.801047 1.82334 0)
(0.963982 1.28089 0)
(0.312406 1.2721 0)
(1.61829 1.60872 0)
(1.13853 1.97017 0)
(0.388831 1.15532 0)
(0.500285 1.5592 0)
(1.20793 1.81956 0)
(1.37849 1.69073 0)
(0.796491 1.62812 0)
(0.78361 1.46012 0)
(1.33786 1.95512 0)
(0.648602 1.73964 0)
(1.23437 1.34849 0)
(0.255971 1.17269 0)
(1.68986 1.86313 0)
(0.815236 1.92254 0)
(0.705206 1.08893 0)
(0.196431 1.23075 0)
(1.81508 1.6358 0)
(0.281179 1.00994 0)
(1.01019 2.03628 0)
(0.3384 1.44718 0)
(1.48038 1.85121 0)
(0.902656 1.77738 0)
(1.02526 1.43781 0)
(0.527114 1.4042 0)
(1.20241 1.6692 0)
(0.262898 0.849114 0)
(0.134381 1.2399 0)
(2.00303 1.7341 0)
(0.875357 2.08243 0)
(1.17498 1.88582 0)
(0.621529 1.32044 0)
(0.626362 1.57573 0)
(1.1863 2.00203 0)
(1.46285 1.42939 0)
(0.529322 1.64709 0)
(0.233809 1.10033 0)
(1.71546 1.8282 0)
(0.937307 1.8975 0)
(0.68581 1.19907 0)
(0.355836 1.3624 0)
(1.71543 1.73415 0)
(1.04998 1.94049 0)
(0.519341 1.17577 0)
(0.431964 1.46417 0)
(1.18471 1.75015 0)
(0.951041 1.6681 0)
(0.966934 1.57401 0)
(1.5319 1.68945 0)
(1.08093 1.81232 0)
(1.22662 1.59324 0)
(0.86094 1.44027 0)
(0.670304 1.535 0)
(1.82942 1.8124 0)
(0.829427 2.00632 0)
(0.488496 0.944741 0)
(0.132562 1.20758 0)
(0.215528 0.901105 0)
(1.95055 1.66055 0)
(0.227195 1.34842 0)
(0.9337 2.08411 0)
(1.33411 1.83607 0)
(1.46299 1.77432 0)
(0.861482 1.70019 0)
(0.66592 1.43797 0)
(1.40798 1.94025 0)
(0.674181 1.8192 0)
(1.04796 1.20199 0)
(0.170449 1.14744 0)
(1.68838 1.50789 0)
(0.200003 1.0086 0)
(1.05369 2.05292 0)
(0.398424 1.53389 0)
(1.2431 1.93962 0)
(1.44852 1.55169 0)
(0.612911 1.63561 0)
(0.419637 1.22675 0)
(0.905998 1.60285 0)
(1.43925 1.90402 0)
(0.771315 1.75636 0)
(1.14043 1.40799 0)
(0.396591 1.29212 0)
(1.59361 1.8516 0)
(0.916532 1.83423 0)
(0.87489 1.32176 0)
(0.429157 1.37542 0)
(1.51662 1.90473 0)
(0.72017 1.88647 0)
(0.867551 1.10385 0)
(0.139146 1.15637 0)
(1.39733 1.62787 0)
(1.11257 1.76501 0)
(0.827104 1.5268 0)
(1.26098 1.8684 0)
(0.734529 1.64125 0)
(0.634325 1.37453 0)
(1.32534 1.72627 0)
(0.81551 1.59493 0)
(1.22395 1.72167 0)
(1.0726 1.71342 0)
(1.21178 2.00545 0)
(0.549735 1.70901 0)
(1.33509 1.31009 0)
(0.154633 1.07559 0)
(1.31858 1.93682 0)
(0.663281 1.6938 0)
(1.32288 1.46556 0)
(0.371542 1.23089 0)
(1.65107 1.86941 0)
(0.851874 1.87447 0)
(0.802907 1.20342 0)
(0.293335 1.29071 0)
(1.81758 1.73482 0)
(0.995388 1.98465 0)
(0.424618 1.0759 0)
(0.337368 1.40857 0)
(1.09606 1.89774 0)
(0.621508 1.27305 0)
(0.529538 1.50957 0)
(0.998107 1.81058 0)
(0.894464 1.40864 0)
(0.575609 1.46606 0)
(1.56741 1.40787 0)
(0.148533 1.01028 0)
(1.08697 2.05342 0)
(0.442406 1.60048 0)
(0.930895 1.51556 0)
(1.10069 1.52201 0)
(1.08647 1.63689 0)
(0.151724 0.739639 0)
(0.0723864 1.18236 0)
(2.09394 1.68506 0)
(0.85189 2.14463 0)
(1.28324 1.98007 0)
(0.598509 1.77346 0)
(1.18482 1.22652 0)
(0.131259 1.09127 0)
(1.67363 1.84814 0)
(0.76699 1.97368 0)
(0.631175 0.972677 0)
(0.100848 1.15941 0)
(1.88029 1.56217 0)
(0.148617 0.899703 0)
(0.953955 2.10587 0)
(0.272038 1.41399 0)
(1.77708 1.8306 0)
(0.89522 1.93755 0)
(0.607166 1.10241 0)
(0.263233 1.30477 0)
(1.72127 1.65351 0)
(1.07059 1.98662 0)
(0.38056 1.10814 0)
(0.422652 1.49606 0)
(1.52686 1.81579 0)
(1.27563 1.7945 0)
(0.919334 1.69068 0)
(1.40547 1.82509 0)
(0.928037 1.74748 0)
(1.51678 1.74518 0)
(0.639177 1.45922 0)
(1.40394 1.86541 0)
(0.838249 1.73038 0)
(0.550941 1.38447 0)
(1.91095 1.76807 0)
(0.822888 2.06771 0)
(0.356581 0.839963 0)
(0.0816711 1.1734 0)
(0.141653 0.809191 0)
(2.03719 1.64389 0)
(0.156939 1.2831 0)
(0.892513 2.1312 0)
(1.26793 1.65712 0)
(1.16193 1.84211 0)
(0.693369 1.5803 0)
(0.746566 1.40294 0)
(1.16175 1.49798 0)
(1.43863 1.92546 0)
(0.723287 1.7823 0)
(1.10423 1.3168 0)
(0.28476 1.22223 0)
(1.68795 1.7919 0)
(1.00897 1.89946 0)
(0.653155 1.23359 0)
(0.432931 1.43058 0)
(1.62583 1.74159 0)
(1.5198 1.8782 0)
(0.848351 1.79494 0)
(1.00838 1.36866 0)
(0.420174 1.33806 0)
(1.78393 1.50205 0)
(0.137407 0.931225 0)
(0.986869 2.09709 0)
(0.325964 1.47811 0)
(1.91419 1.78055 0)
(0.885277 2.02312 0)
(0.394383 0.946916 0)
(0.179969 1.26704 0)
(1.18475 1.92758 0)
(0.492793 1.242 0)
(0.578609 1.58413 0)
(1.15542 1.61303 0)
(1.78545 1.79363 0)
(0.963548 1.94333 0)
(0.551881 1.12856 0)
(0.332918 1.37501 0)
(1.10478 1.85847 0)
(0.72905 1.354 0)
(0.601647 1.52839 0)
(1.56873 1.51252 0)
(0.278247 1.09965 0)
(1.14465 2.00217 0)
(0.491067 1.59265 0)
(1.533 1.62824 0)
(0.97912 1.48281 0)
(1.64085 1.68298 0)
(0.981622 1.61396 0)
(1.04877 1.58684 0)
(1.10811 1.94265 0)
(0.486486 1.19419 0)
(0.491122 1.5203 0)
(1.01181 1.71548 0)
(1.00903 1.77679 0)
(0.668749 1.50295 0)
(1.1274 2.04124 0)
(0.485524 1.6618 0)
(1.44217 1.32676 0)
(0.119681 1.02323 0)
(1.89266 1.72176 0)
(0.956522 2.02629 0)
(0.339476 0.990903 0)
(0.269214 1.36488 0)
(1.26522 1.97341 0)
(0.596814 1.69183 0)
(1.35399 1.4049 0)
(0.264181 1.14987 0)
(1.24253 1.90299 0)
(0.659543 1.62494 0)
(0.537917 1.2999 0)
(1.5716 1.89589 0)
(0.778509 1.86024 0)
(0.886282 1.19066 0)
(0.233061 1.22768 0)
(0.985049 1.65381 0)
(1.14815 1.71004 0)
(1.55084 1.88112 0)
(0.721143 1.93748 0)
(0.756329 1.01228 0)
(0.0893157 1.13219 0)
(0.865728 1.6391 0)
(1.39666 1.93531 0)
(0.658125 1.86169 0)
(0.967454 1.10701 0)
(0.0941411 1.10292 0)
(1.32911 1.63833 0)
(1.13215 1.80044 0)
(1.18997 1.78331 0)
(0.870603 1.5199 0)
(1.45232 1.6859 0)
(1.83608 1.81535 0)
(0.875713 1.97879 0)
(0.51343 1.01664 0)
(0.203146 1.26912 0)
(1.63599 1.82151 0)
(0.976156 1.8615 0)
(0.774441 1.29466 0)
(0.451977 1.41507 0)
(0.279861 0.906424 0)
(1.96811 1.72401 0)
(0.193545 1.30011 0)
(0.91041 2.06307 0)
(1.45275 1.80735 0)
(0.752281 1.58391 0)
(1.2878 1.58141 0)
(1.15789 1.68354 0)
(0.742176 1.49529 0)
(0.751768 1.47155 0)
(1.3828 1.57053 0)
(1.06508 1.77296 0)
(1.26653 1.76195 0)
(0.896608 1.62631 0)
(1.32327 1.86652 0)
(1.26909 1.83744 0)
(0.786489 1.68211 0)
(0.807287 1.65861 0)
(0.601731 1.38261 0)
(1.38625 1.76712 0)
(1.40681 1.73496 0)
(1.73079 1.81767 0)
(0.77337 2.01723 0)
(0.530386 0.902431 0)
(0.072047 1.14548 0)
(1.95427 1.56325 0)
(0.108321 0.839258 0)
(0.916736 2.13702 0)
(0.21795 1.36134 0)
(0.828574 1.55502 0)
(0.836853 1.46208 0)
(1.64879 1.40142 0)
(0.0983805 0.948935 0)
(1.01953 2.09272 0)
(0.381766 1.5564 0)
(1.45631 1.87776 0)
(0.833759 1.75912 0)
(0.473031 1.35116 0)
(1.37682 1.92865 0)
(0.703487 1.73201 0)
(1.22401 1.40921 0)
(0.350351 1.24051 0)
(1.67459 1.58245 0)
(0.308245 1.08327 0)
(1.09019 2.00727 0)
(0.437595 1.53283 0)
(1.24207 1.96489 0)
(1.42594 1.4828 0)
(0.588696 1.65466 0)
(0.328564 1.17437 0)
(1.30461 1.96799 0)
(0.610531 1.8174 0)
(1.08834 1.15013 0)
(0.0907942 1.07901 0)
(0.73676 1.55066 0)
(1.53288 1.55679 0)
(1.18726 1.96587 0)
(0.369905 1.17108 0)
(0.546298 1.60355 0)
(0.941019 1.81274 0)
(0.92305 1.38246 0)
(0.499786 1.41235 0)
(1.14525 1.57504 0)
(1.88442 1.65699 0)
(0.258386 0.962021 0)
(0.970218 2.05598 0)
(0.283 1.39746 0)
(1.76042 1.83977 0)
(0.825136 1.96359 0)
(0.59548 1.0179 0)
(0.165104 1.22166 0)
(0.253214 0.768028 0)
(0.054923 1.15437 0)
(1.99278 1.7263 0)
(0.825856 2.11412 0)
(0.103781 0.749316 0)
(2.09607 1.63822 0)
(0.109204 1.23145 0)
(0.869695 2.15877 0)
(1.49792 1.91495 0)
(0.741239 1.82756 0)
(0.98855 1.2338 0)
(0.236316 1.2104 0)
(1.09879 1.43643 0)
(1.60284 1.8734 0)
(0.862256 1.84223 0)
(0.882089 1.27633 0)
(0.352843 1.3191 0)
(1.74941 1.58397 0)
(0.258195 1.0244 0)
(1.04114 2.03737 0)
(0.378768 1.49389 0)
(1.5265 1.78262 0)
(1.05791 1.83086 0)
(0.824049 1.39376 0)
(0.602923 1.50364 0)
(1.39682 1.89488 0)
(0.773559 1.726 0)
(0.466138 1.32176 0)
(1.34187 1.81094 0)
(0.926696 1.71968 0)
(1.36991 1.95098 0)
(0.660036 1.77824 0)
(1.14556 1.27501 0)
(0.208546 1.15764 0)
(1.29765 1.91961 0)
(0.675684 1.66787 0)
(0.451034 1.27041 0)
(0.90592 1.57708 0)
(1.22877 1.46717 0)
(1.30382 1.74664 0)
(1.54263 1.84413 0)
(0.959319 1.77838 0)
(0.597459 1.45544 0)
(1.48945 1.90273 0)
(0.784003 1.78959 0)
(1.05513 1.34277 0)
(0.349256 1.27878 0)
(1.14731 1.90967 0)
(0.56451 1.26672 0)
(0.565449 1.55172 0)
(1.47854 1.6458 0)
(1.65175 1.8499 0)
(0.914269 1.8654 0)
(0.79269 1.25553 0)
(0.375524 1.35526 0)
(1.19717 2.01191 0)
(0.544169 1.74565 0)
(1.2623 1.22213 0)
(0.0893669 1.04277 0)
(1.13014 1.74596 0)
(1.25674 1.70789 0)
(1.12279 1.62935 0)
(0.679056 1.41983 0)
(1.01864 1.47214 0)
(1.74014 1.77308 0)
(1.00629 1.93101 0)
(0.565401 1.17267 0)
(0.393093 1.42119 0)
(1.21553 1.84657 0)
(0.738963 1.61779 0)
(0.709956 1.40778 0)
(1.32661 1.69628 0)
(1.7631 1.70506 0)
(1.03697 1.97485 0)
(0.4303 1.11257 0)
(0.391889 1.45503 0)
(1.18318 1.54551 0)
(1.71119 1.85523 0)
(0.862078 1.90806 0)
(0.707595 1.14152 0)
(0.261135 1.2838 0)
(1.61026 1.88453 0)
(0.777486 1.89565 0)
(0.801058 1.12015 0)
(0.188203 1.2075 0)
(1.28983 1.89065 0)
(0.716121 1.65747 0)
(0.547006 1.3286 0)
(0.987617 1.83701 0)
(0.837021 1.35135 0)
(0.508324 1.43875 0)
(1.44596 1.72459 0)
(1.24772 1.81176 0)
(0.853525 1.66127 0)
(0.838891 1.58214 0)
(1.05017 1.74608 0)
(1.45388 1.90695 0)
(0.680032 1.91256 0)
(0.845849 1.03101 0)
(0.0709032 1.10368 0)
(0.970726 1.51026 0)
(1.72217 1.42983 0)
(0.0916934 0.920172 0)
(0.987554 2.10966 0)
(0.343362 1.51435 0)
(1.46761 1.92237 0)
(0.704178 1.84911 0)
(0.962658 1.16495 0)
(0.166396 1.16108 0)
(1.05273 1.88907 0)
(0.664347 1.27321 0)
(0.495334 1.47355 0)
(1.91081 1.78414 0)
(0.851338 2.03758 0)
(0.391235 0.903157 0)
(0.131651 1.21983 0)
(1.27745 1.98101 0)
(0.59695 1.73879 0)
(1.25777 1.29905 0)
(0.180893 1.1128 0)
(1.58158 1.82431 0)
(1.06873 2.07081 0)
(0.439338 1.62908 0)
(1.5113 1.32745 0)
(0.0857775 0.9795 0)
(1.21109 1.86859 0)
(0.690227 1.60644 0)
(0.642653 1.35696 0)
(1.9113 1.75504 0)
(0.926152 2.0218 0)
(0.368139 0.976137 0)
(0.23122 1.32176 0)
(0.0875202 0.676086 0)
(0.0395188 1.14696 0)
(2.15953 1.64757 0)
(0.843108 2.18184 0)
(1.79927 1.7857 0)
(0.785026 2.05766 0)
(0.437686 0.846233 0)
(0.0538627 1.13801 0)
(0.0850306 0.795822 0)
(2.01146 1.56971 0)
(0.177817 1.31787 0)
(0.893977 2.15711 0)
(1.3578 1.91356 0)
(0.721675 1.70707 0)
(0.429506 1.28214 0)
(1.8419 1.48552 0)
(0.0889906 0.874773 0)
(0.94519 2.13126 0)
(0.280062 1.44031 0)
(1.04379 1.68253 0)
(1.5778 1.75642 0)
(1.6168 1.4859 0)
(0.215628 1.04281 0)
(1.09522 2.03486 0)
(0.442835 1.57251 0)
(1.1313 2.041 0)
(0.496418 1.69778 0)
(1.36978 1.26016 0)
(0.0802794 1.01137 0)
(1.33818 1.51831 0)
(1.84584 1.68711 0)
(0.328729 1.01847 0)
(0.993839 2.02028 0)
(0.31691 1.41353 0)
(1.57659 1.67395 0)
(1.21147 1.61734 0)
(1.64494 1.86735 0)
(0.7709 1.9375 0)
(0.708355 1.03843 0)
(0.137418 1.18029 0)
(1.82983 1.57575 0)
(0.194919 0.951516 0)
(0.988864 2.07593 0)
(0.315436 1.44852 0)
(1.1258 1.72365 0)
(1.39851 1.80058 0)
(1.26625 1.68615 0)
(0.982785 1.55792 0)
(1.19457 1.98284 0)
(1.495 1.49573 0)
(0.542325 1.62676 0)
(0.304335 1.13938 0)
(1.01323 1.68586 0)
(1.09457 1.48723 0)
(1.07293 1.73313 0)
(1.38357 1.84461 0)
(0.875446 1.72467 0)
(0.618588 1.42725 0)
(1.43385 1.84894 0)
(0.891112 1.75154 0)
(0.574075 1.41724 0)
(1.45473 1.59982 0)
(1.11349 1.83654 0)
(0.785724 1.40138 0)
(0.653623 1.54531 0)
(1.04775 1.64006 0)
(1.20529 1.73675 0)
(1.13096 1.88357 0)
(0.647449 1.31247 0)
(0.586433 1.54147 0)
(1.19163 2.00923 0)
(1.40595 1.36527 0)
(0.533335 1.67595 0)
(0.184328 1.08 0)
(0.903504 1.55458 0)
(1.05036 1.5219 0)
(1.50072 1.39707 0)
(0.171872 1.04603 0)
(1.1315 2.03252 0)
(0.482356 1.63186 0)
(1.82796 1.77009 0)
(0.96532 1.97335 0)
(0.469917 1.07734 0)
(0.30932 1.37301 0)
(1.64046 1.7758 0)
(1.57236 1.86028 0)
(0.721338 1.97407 0)
(0.681737 0.951513 0)
(0.0583734 1.1154 0)
(1.76025 1.82234 0)
(1.81037 1.80644 0)