/*--------------------------------*- C++ -*----------------------------------*\
| =========                 |                                                 |
| \\      /  F ield         | OpenFOAM: The Open Source CFD Toolbox           |
|  \\    /   O peration     | Version:  2312                                  |
|   \\  /    A nd           | Website:  www.openfoam.com                      |
|    \\/     M anipulation  |                                                 |
\*---------------------------------------------------------------------------*/
FoamFile
{
    version     2.0;
    format      ascii;
    arch        "LSB;label=32;scalar=64";
    class       volScalarField;
    location    "1";
    object      sigmaHyd;
}
// * * * * * * * * * * * * * * * * * * * * * * * * * * * * * * * * * * * * * //

dimensions      [1 -1 -2 0 0 0 0];

internalField   nonuniform List<scalar> 
26526
(
1.43509
1.72232
1.74365
1.74288
1.75823
1.75849
1.53661
1.77278
1.35436
1.44903
1.62212
1.75666
1.74786
1.77549
1.80905
1.81334
1.23215
1.22148
1.50738
1.50982
1.52887
1.72679
1.77002
1.79865
1.54304
1.62416
1.60395
1.77195
1.73462
1.11698
1.79026
1.59022
1.6556
1.61117
1.63674
1.75466
1.35561
1.53966
1.51076
1.75598
1.68347
1.805
1.86061
1.37319
1.51059
1.69173
1.63807
1.55421
1.16837
0.845474
1.53715
1.68732
1.65885
1.81266
1.75837
1.21766
1.49315
1.75582
1.8453
1.13181
1.48957
1.54822
1.55128
1.69672
1.65548
1.27155
1.77411
1.77144
1.88261
1.86576
0.980683
1.00877
1.47199
1.48566
1.16731
1.46716
1.42474
1.67019
1.67553
1.48418
1.50886
1.37179
1.53038
1.77183
1.73605
1.60944
1.72606
1.4636
1.58915
1.7803
1.46846
1.62435
1.50481
1.76607
1.54147
1.70757
1.61205
1.76797
1.77086
0.688846
0.667923
1.55546
1.55727
1.71432
1.70979
1.65901
1.7253
1.62287
1.60835
1.72649
1.88899
1.75513
1.87714
0.819574
0.801119
1.49582
1.50575
1.48062
1.71251
1.80465
1.84398
1.10982
1.48455
1.67813
1.76032
1.89659
0.807836
1.48539
1.72344
0.962951
1.51519
1.59461
1.63949
1.63213
1.72404
1.59066
1.46342
1.30285
1.45206
1.7099
1.56433
1.61726
1.37617
1.39272
1.44703
1.25972
1.48081
1.60266
1.64627
1.76567
1.37522
1.56703
1.71255
1.58487
1.57849
1.32288
1.56175
1.74231
1.75142
1.8172
1.78201
1.49487
1.65159
1.58107
1.59167
1.79048
1.76434
1.8244
1.1835
1.50391
1.05818
1.78049
1.53561
1.78008
1.78215
1.82183
1.10559
1.52913
1.76843
1.74891
1.69779
1.72631
1.77047
1.71468
1.7893
1.83872
1.05069
1.51303
1.75917
1.81091
1.77724
1.20952
1.49635
1.48431
1.63463
1.7612
1.48856
1.65864
1.76688
1.88697
0.738127
1.49985
1.77352
1.59045
1.10183
0.852202
1.53908
1.70212
1.74539
1.63343
1.60001
1.77576
1.78453
1.74207
1.73648
1.78405
1.43493
1.60162
1.59741
1.69579
1.78489
0.67717
1.54688
1.6348
1.81539
1.84525
1.38187
1.73527
1.08772
0.772162
1.54601
1.61832
1.58416
1.70961
1.77323
1.86117
1.04778
1.45309
1.47485
1.66267
1.77617
1.8285
1.52052
1.46471
0.794394
1.54201
1.65622
1.57977
1.7667
1.46674
0.975391
1.51172
1.68184
1.58599
1.81299
1.8438
1.09619
1.49582
1.76324
1.73425
1.76096
1.75501
1.76295
1.472
1.64249
1.6267
1.61495
0.460734
1.57542
1.696
1.75903
1.7548
1.74893
1.69733
1.76981
1.30823
1.51233
1.7476
1.7042
1.5078
1.76144
1.68037
1.72431
1.7515
1.79372
1.92283
1.42967
0.784582
0.684525
1.5525
1.70146
1.76246
1.65756
1.71978
1.72463
1.71344
1.77854
1.77707
1.55296
1.72222
1.72078
1.81029
1.81335
1.77471
1.65678
1.77864
1.81053
1.82666
1.07134
1.43257
1.54571
1.60605
1.60567
1.67608
1.79335
1.7982
1.35851
1.35874
1.56954
1.56186
1.76309
1.75002
1.73758
1.52329
1.00308
1.33607
1.78666
1.86434
0.762678
1.54924
1.62377
1.53327
1.76712
1.54595
1.77213
1.72959
1.58999
1.768
1.75724
1.78214
1.76338
1.18803
1.44152
1.68439
1.75632
1.85825
1.06681
1.48188
1.78086
1.73157
1.53194
1.08142
1.29685
1.77694
1.77409
1.81223
1.80655
1.52803
1.53946
1.59588
1.57483
1.39418
1.73148
1.69021
1.19381
1.28554
1.47138
1.4606
0.5029
1.57023
1.67331
1.75644
1.48242
0.774813
1.5321
1.5365
0.772106
1.63426
1.62368
1.56822
1.5721
1.58663
1.72029
1.7277
1.40431
1.34887
1.45324
1.65354
1.46944
1.28297
1.76896
1.55947
1.60844
1.60094
1.60461
1.35481
1.36388
1.58162
1.59498
1.58972
1.53634
1.7497
1.42009
1.5817
1.45258
1.44502
1.7514
1.6255
1.70759
1.7646
1.78787
1.73689
1.75147
1.69577
1.83458
1.74405
1.78072
1.84678
1.50914
0.835941
1.53941
1.6782
1.65845
1.78517
1.63672
1.00695
1.73581
1.52698
1.73889
1.73527
1.72457
1.75912
1.74345
1.75767
1.83547
1.16559
1.50977
1.76874
1.7216
1.54937
1.54864
1.73166
1.44789
1.43468
1.64787
1.76189
1.35089
1.53926
1.31198
1.73657
1.76797
1.90702
1.90933
0.882092
0.871179
1.44813
1.44526
1.62756
1.5661
1.74146
1.69419
1.80789
1.85062
1.07274
1.4801
1.65986
1.70889
1.93335
1.43135
0.821815
1.78629
1.35286
1.56331
1.4985
1.73009
1.36913
1.53925
1.76123
1.45529
1.69112
1.82662
1.86267
1.39435
1.6344
1.78657
1.61654
1.81446
1.88918
0.89106
1.4056
1.71943
1.72956
1.7748
1.65842
1.02697
1.52313
1.73258
1.68933
1.74455
1.48679
1.57609
1.26882
1.48561
1.54792
1.77613
0.989046
1.51481
1.66419
1.63864
1.73127
0.688661
1.54016
1.64557
1.47178
1.44944
1.71923
1.60555
1.72047
1.89609
0.840341
1.49006
1.58637
1.71636
1.83901
1.71769
1.84573
1.64048
1.635
1.7778
1.50323
1.66274
1.7799
1.77246
1.54168
1.77395
1.53327
1.52759
1.5787
1.45278
1.61073
0.749447
1.53825
1.47456
1.769
1.52314
1.69753
1.77553
1.85761
1.71987
1.871
0.892934
0.878797
1.5088
1.50787
1.67528
1.57532
1.67507
1.69469
1.53749
1.33136
1.74097
1.78598
1.59346
1.75574
1.49936
1.67858
1.27061
1.63798
1.65785
1.77752
1.5888
1.61062
1.61912
1.5708
1.66676
1.77325
1.72609
0.652685
1.55269
1.41632
1.42109
1.47017
0.80905
1.54055
1.71939
1.25854
1.30455
1.95951
1.44608
1.01118
1.52055
1.71111
1.6681
1.78638
1.84944
1.08972
1.50268
0.820715
1.53853
1.71711
1.75628
1.77606
1.76612
1.58545
1.7047
1.78959
0.664087
1.54908
1.13888
1.29221
1.46216
1.25218
2.04152
1.59349
1.39563
1.51662
1.79501
1.3424
1.54775
1.74236
1.40852
1.41585
1.40217
1.38012
1.46276
1.4681
1.62553
1.59465
1.34241
1.41159
0.988878
1.52012
1.70463
1.66939
1.74862
1.85969
1.05435
1.50103
1.10148
1.77531
1.7228
1.4606
1.25956
1.64366
1.75313
1.80084
1.77285
1.63996
1.7744
1.51467
1.65802
1.74493
1.62443
1.63863
1.78491
1.63516
1.6099
1.95365
1.7284
1.44326
0.651886
1.67516
1.87353
1.68875
1.76581
0.751921
1.51888
1.71417
1.85604
1.73798
1.79394
1.13233
1.27861
1.43585
1.38943
2.16101
1.55602
1.3798
1.46062
1.76345
1.72553
1.709
1.56995
1.50489
1.7564
1.61981
1.62588
1.67742
1.50161
1.18597
1.47688
1.66958
1.59207
1.77923
1.4962
1.65346
0.740539
1.5501
1.67755
1.71654
1.77824
1.751
1.53144
1.79215
1.79935
1.53173
1.60148
1.69635
1.70347
1.82971
1.59683
1.78883
1.80923
1.18291
1.48759
1.76915
1.85479
1.50205
1.77885
1.50468
1.66739
1.62079
1.57126
1.58671
1.70813
1.76131
1.74262
1.71725
1.53147
1.73241
1.71903
1.76529
1.7737
1.76974
1.78794
1.77674
1.55899
1.70964
1.78222
1.343
1.54853
1.5163
1.73679
1.7258
1.7244
1.64831
1.71231
1.78289
1.75482
1.19271
1.43252
1.67242
1.72557
1.71999
1.61341
1.72959
1.20051
1.68419
1.65557
1.6582
1.742
1.78752
1.70729
1.57839
1.79763
1.78371
1.75295
1.55882
1.76307
1.48075
1.59884
1.78168
1.82664
1.08326
1.42331
1.66033
1.55811
1.56835
1.61691
1.61302
1.86467
1.77741
1.49703
1.76411
1.2555
1.74312
1.5183
1.51802
1.72791
1.78266
1.71791
1.54462
1.80059
1.8355
1.11891
1.51656
1.70946
0.7956
1.54302
1.54947
1.55657
1.55692
1.74085
1.32776
1.77823
1.65637
1.66315
1.68138
1.33292
1.77718
1.75005
1.47803
1.47431
1.63395
1.64688
1.56238
1.55545
1.76142
1.79431
1.53441
1.65467
1.46501
1.73024
1.79773
1.24065
1.50816
1.51043
1.72301
1.71428
1.65039
1.77981
1.5094
1.64694
1.78571
1.60355
1.63349
1.1753
1.57249
1.70888
1.35157
1.59758
1.65045
1.77436
1.83266
1.15465
1.51736
1.58618
1.23856
1.29115
2.01078
1.41161
1.70543
1.61762
0.804029
0.791052
1.53614
1.54096
1.72252
1.81295
1.68078
1.76849
1.42171
1.59356
1.73918
1.849
0.998905
1.51403
1.71528
1.60048
1.7349
0.580282
1.50806
1.67024
1.91069
1.5463
1.59517
1.47594
1.82454
1.83953
1.01188
1.39392
0.906101
1.52789
1.64729
1.56024
1.32884
1.63217
1.67125
1.46106
1.7432
1.84454
1.77717
1.7735
1.57273
1.43138
1.77227
1.7519
1.73916
1.58994
1.18498
1.26477
1.86862
1.41381
1.39794
1.9195
1.68674
1.46781
1.78839
1.60947
1.53405
1.5348
1.33412
1.60801
1.79073
1.77252
1.51973
1.66227
1.61995
1.78711
1.73644
1.71713
0.735722
1.53467
1.72345
1.66034
1.77008
1.3599
1.55963
1.70042
1.28963
1.39042
1.0818
1.73258
1.55789
1.47143
1.70361
1.36687
1.72955
1.78148
1.44253
1.60388
1.60693
1.65729
1.69913
1.69763
1.68859
1.09628
0.63633
1.5335
1.76036
1.51956
1.14868
1.4931
1.68253
1.63493
1.53048
0.706031
1.64205
1.59937
1.56164
1.55389
1.7327
1.88713
0.683704
1.50665
1.77745
1.81025
1.53827
1.67884
1.49738
1.80027
1.78833
1.79267
1.55074
1.7771
1.25442
1.67881
1.41599
1.71102
1.83323
1.8731
0.924083
1.3945
1.27927
1.45518
1.67251
1.57445
1.59555
1.61102
1.73709
1.77357
1.79486
1.79311
1.22381
1.22928
1.48441
1.48859
1.73639
1.35677
1.52067
1.3487
1.31846
1.69119
1.71319
1.44425
1.45156
1.57198
1.57787
1.6759
1.29326
0.850948
1.53864
1.72311
1.73436
1.87227
1.74133
0.813215
1.50925
1.77107
1.72875
1.78111
1.2346
1.48239
1.76833
1.73365
1.84207
0.911842
1.51631
1.77968
1.37676
1.57428
1.59654
1.76053
1.81519
1.53402
1.73228
1.78099
1.77794
1.60072
1.77339
1.43054
1.60378
1.7424
1.90142
0.913953
1.40371
1.76995
1.75348
1.39796
1.41072
1.5666
1.58752
1.70045
1.77907
1.60736
1.62078
1.68397
1.67153
1.68871
1.77197
1.64785
1.7769
1.76673
1.20987
1.4523
1.68384
1.76947
1.88615
1.37648
1.78633
1.55269
1.7201
1.485
1.65315
1.6722
1.66408
0.908143
1.52733
1.67475
1.62645
0.561004
1.57766
1.67442
1.63979
1.28521
1.78897
1.59379
1.62967
1.75524
1.85401
1.73545
0.890697
1.51337
1.7852
1.79557
1.54566
1.62566
1.69544
0.735011
1.54359
1.6843
1.50989
1.78107
1.70632
1.63539
1.76117
1.84914
1.11566
1.50438
1.70414
1.70774
1.41539
1.31222
1.71706
1.78001
1.7895
1.22216
1.48178
1.79714
1.78975
1.3399
1.34885
1.54751
1.5619
1.23744
1.57964
1.34366
1.68735
1.47862
1.79223
0.968097
1.00704
1.71441
1.75906
1.7615
1.7553
1.52906
1.53223
1.76966
1.5076
1.6688
1.77408
1.80089
1.16177
1.44398
1.52611
1.5922
1.7925
1.33803
1.55699
1.52678
1.3375
1.30829
2.35019
1.36086
1.79506
1.76323
1.85473
1.08514
1.47696
1.7743
1.77462
1.75123
1.74599
1.53162
1.53773
1.45124
1.74752
1.59882
1.71918
1.49655
1.46641
1.45932
1.77594
1.79675
1.53963
1.85116
1.72443
1.96355
1.69529
1.43175
0.686048
1.49161
1.60607
1.74903
1.70218
1.77367
1.30499
1.52299
0.984055
1.64072
1.78439
1.62866
1.78914
1.58819
1.77585
1.50394
1.49239
1.07646
1.23298
1.49474
1.75938
1.7458
1.76588
1.76158
1.57133
1.31338
1.4125
1.74299
1.80067
1.8455
1.02084
1.42774
1.51021
1.73351
1.70527
1.77538
1.76692
1.55668
1.74731
1.7897
1.70005
1.54144
1.74931
1.68741
1.91044
0.725744
1.49349
1.66473
1.55835
2.00648
2.0464
1.53479
1.72005
1.3868
1.53909
1.77707
1.78744
1.43796
1.44168
1.61257
1.60066
1.81594
1.8474
1.05468
1.46459
1.78334
1.52209
1.65933
1.65016
1.46138
1.20373
1.50361
1.59176
1.72604
1.77514
1.84467
0.975055
1.51337
1.59833
1.76913
1.69716
1.9035
0.725878
1.4959
1.77917
1.51123
1.67941
1.79445
1.83511
1.13594
1.49779
1.65556
1.7646
1.51426
1.7647
1.74604
1.77012
1.78433
1.48523
1.49572
1.6495
1.64197
1.55004
1.78806
1.84399
1.50616
1.26106
1.71501
1.83617
1.7477
1.77078
1.57758
1.34798
1.57576
1.62601
1.75355
1.75513
1.21752
1.44849
1.78493
1.50659
1.64941
1.78804
1.36911
1.55846
1.50736
1.73553
1.69771
1.77324
1.79528
1.5291
1.56362
1.71372
1.88666
0.670096
1.51276
0.952305
1.70948
1.52281
1.63442
1.727
1.76988
1.85897
1.85912
0.907484
0.863873
1.50953
1.51269
1.63603
1.5868
1.74865
1.50474
1.68834
1.59659
1.68671
1.78
1.35038
1.54347
1.20333
1.27326
1.83142
1.43297
1.47163
1.58326
1.73055
0.983494
1.51839
1.73417
1.84056
1.70177
1.64255
1.74458
1.53653
1.78993
1.72067
1.53087
1.76856
1.72062
0.960926
1.78434
1.53168
1.67762
1.76588
1.83897
1.12363
1.51951
1.76705
1.84671
1.514
1.6106
1.61127
1.78458
1.76101
1.51895
1.51052
1.67489
1.68723
1.50909
1.74037
1.64092
1.78495
1.67579
0.639398
1.55102
1.70431
1.73505
1.3076
1.30084
1.72997
1.82193
1.62339
1.60417
1.53884
0.556997
1.08771
1.74322
1.66521
1.74304
1.46257
1.79273
1.88358
1.74564
1.88074
0.989003
0.957545
1.46052
1.46827
1.32143
1.64295
1.57778
1.52109
1.72635
1.74838
0.883147
1.60271
0.625384
1.56931
1.6357
1.63793
1.68742
1.67744
1.75557
1.84222
1.04412
1.51805
1.76764
1.81127
1.52752
1.34018
1.57298
1.76357
1.4091
1.57732
1.62925
1.62818
1.86525
1.72557
1.76103
1.85858
0.855325
0.843917
1.5132
1.50998
1.67323
1.88643
1.75641
0.954799
1.46549
1.53376
1.7597
1.72945
1.7743
1.78151
1.56251
1.66713
1.77951
1.37529
1.55959
1.76774
1.50814
1.67399
1.73459
1.44586
1.60407
1.20488
1.33002
1.92998
1.58237
1.44579
1.53637
1.72947
1.38589
1.53776
1.70796
1.72008
1.58415
1.65337
1.77419
1.37729
1.5587
1.77985
1.5325
1.69651
1.81144
1.54352
1.91665
1.79307
0.829619
1.41921
1.59337
1.66918
1.66921
1.93062
1.74487
0.795296
1.39427
1.72436
1.38177
1.52537
1.78487
1.84348
1.13679
1.5023
1.54719
1.60455
1.75659
1.37797
1.55615
1.47722
1.46932
1.12712
1.16091
1.52056
1.64269
1.63224
1.51941
0.715333
1.51364
1.70303
1.87586
1.74579
1.79811
1.80639
1.57136
1.57416
0.578301
1.65063
1.66423
1.69417
1.90717
1.76027
1.75262
1.57775
1.57836
1.92193
1.72624
1.41926
0.85355
1.63367
1.74631
1.34781
1.52058
1.5961
1.80223
1.83196
1.14939
1.51605
1.48867
1.76758
1.65108
1.77483
1.50381
1.67098
1.60308
1.50897
1.84146
1.7872
1.0115
1.40595
1.59844
1.78116
1.75287
1.55039
1.78088
1.50412
1.65218
1.73971
1.86721
1.47485
1.68848
1.40283
1.52469
1.26322
1.75807
1.80275
1.13666
1.443
1.6821
1.66594
1.75499
1.75779
1.30796
1.32205
1.50384
1.52083
0.93704
0.922045
1.71638
0.668589
1.54798
1.33882
1.75993
1.88595
0.955185
1.47331
1.76136
1.71862
1.18316
1.77164
1.81829
1.53478
1.5906
1.84531
1.67211
1.56786
1.44453
1.10893
1.30377
1.45918
1.2525
1.61717
2.11897
1.42293
1.50927
1.76808
1.78866
1.51163
1.51212
1.68006
1.66432
1.55995
1.54298
1.45244
1.23367
1.4829
1.59585
1.72988
1.65611
1.50093
1.31047
1.40706
1.66275
1.66301
1.69048
1.66343
1.75759
1.80352
1.53396
1.71658
1.76259
1.2461
1.4766
1.39718
1.66112
1.7483
1.81911
1.52292
1.70792
0.751276
0.734854
1.52799
1.52134
1.63345
1.71184
1.54256
0.812064
1.70533
1.77399
1.78313
1.78231
1.77464
1.56656
1.55027
1.72489
1.2209
1.23785
1.45801
1.42413
1.54947
1.76173
1.84319
1.11776
1.48886
1.64711
1.76213
1.35498
1.55178
0.737574
1.52181
1.73989
1.85834
1.80005
1.78719
1.82066
1.51895
1.74151
1.46553
1.47467
1.14489
1.17381
1.47398
1.60834
1.47402
1.57695
1.51559
1.77383
1.68844
1.54472
1.79543
1.82529
1.16576
1.49924
1.39819
1.34918
1.69642
1.35947
1.71466
1.68697
1.78362
1.77436
1.32023
1.3246
1.53219
1.52931
1.75076
1.81492
1.19422
1.48209
1.79227
1.2462
1.46008
1.7122
1.92303
0.79949
1.46535
1.78034
1.91226
0.767377
1.4662
1.35893
1.32188
2.22079
1.4095
1.62206
1.45521
1.68501
1.74518
1.76522
1.20548
1.45481
0.573296
1.54389
1.62445
1.76264
1.44299
1.60049
1.75943
1.79878
1.19335
1.48161
1.81933
1.8088
1.12162
1.43679
1.53584
0.54512
1.51244
1.72781
1.69978
0.649453
1.53039
1.62947
0.679699
1.53915
1.77379
1.81995
1.52475
1.69445
1.77187
1.50623
1.67365
1.84299
1.82574
1.36924
1.68817
1.93231
1.48147
0.659123
1.73254
0.661907
1.53292
1.22407
1.23934
1.37864
1.64421
1.3943
1.65697
1.83464
1.7999
1.792
1.79762
1.55188
1.71754
1.51369
1.7551
1.69216
1.75611
1.24959
1.02254
1.52181
1.704
1.69496
1.71039
1.75146
1.47502
1.7569
1.45944
1.62209
1.52539
1.75574
1.74282
1.51669
1.61794
1.59312
1.75948
1.75175
1.46063
1.45914
1.62341
1.62291
1.77087
1.79919
1.19686
1.47003
1.64119
1.09908
1.58345
1.57061
1.73892
1.79575
1.52517
1.37641
1.78181
1.53664
1.76003
1.48461
1.65151
1.77839
1.61073
1.75142
1.76609
1.24735
1.47421
1.5213
1.73716
1.38952
1.62179
1.42528
1.76626
1.74086
1.63957
1.77717
1.50945
1.65425
1.63043
1.75731
1.36863
1.54859
1.75934
1.87559
1.75479
0.998306
1.48478
1.61543
1.74193
1.34897
1.52477
1.79959
1.85533
1.0177
1.50115
1.77731
1.41596
1.59516
1.767
1.71563
1.53606
1.75116
1.42165
1.58899
1.73546
1.73203
1.48603
1.15966
1.30094
1.42413
1.4258
2.08425
1.56453
1.38544
1.5033
1.46886
1.38424
1.60024
1.6939
1.75734
1.28735
1.50352
1.69789
1.78451
1.33188
1.54789
1.69802
1.7375
1.66055
1.69651
1.50114
1.42663
1.65148
1.65914
1.77766
1.79671
0.948807
1.81247
1.87522
0.96599
1.43256
1.46896
1.62874
1.59781
1.74859
1.75507
1.74868
1.73013
1.71932
1.63125
1.2618
1.75124
1.40111
1.57301
1.01494
1.32262
1.77793
1.87696
0.829083
1.53912
1.59744
1.52379
1.78766
1.86456
1.043
1.46661
1.77201
1.6508
1.42332
1.43484
1.76108
1.8061
1.22554
1.50653
1.79063
1.54255
1.46909
1.62903
1.67545
0.679487
1.56074
1.72617
1.78664
1.54117
1.5921
1.7247
1.76301
1.76081
1.53419
1.85385
1.79996
1.36415
1.72531
1.91021
1.47
0.841134
1.69597
1.8397
1.58587
1.56858
1.59371
1.58102
1.52092
1.0355
1.71129
1.69899
1.52159
1.74162
1.60627
1.7775
1.51771
1.69483
1.75186
1.53073
1.75584
1.76856
1.42466
1.58873
1.73713
1.71947
1.25356
1.44902
1.69616
1.85443
1.78222
1.7838
1.51787
1.65167
1.69783
1.69305
1.77418
1.60622
1.7017
1.85158
1.77135
1.73958
1.74793
1.28412
1.51616
1.62056
1.32615
1.69098
1.47111
1.78567
1.58506
1.57598
1.79648
1.30784
1.54979
1.8517
1.74555
0.879968
1.51791
0.867209
1.53096
1.32449
1.50909
1.69686
1.57957
1.74378
1.68403
1.54336
0.805096
1.70986
1.72211
1.25509
1.44643
1.38281
1.57091
1.78078
1.64344
1.64319
1.65315
1.76535
1.77032
0.748002
1.5507
0.70819
1.5551
1.70321
1.65561
1.66466
1.67575
1.5778
1.77786
1.77681
1.19643
1.45733
1.45655
1.45756
1.2207
1.21126
1.50942
1.49949
1.61331
1.64745
1.51747
1.45988
1.46097
1.74517
1.73544
1.87941
0.826388
1.50063
1.66848
1.80312
1.80028
1.14937
1.45543
1.77328
0.522099
1.58121
1.67964
1.66795
1.5302
1.54528
1.78743
1.71467
1.55269
1.67426
1.75485
1.64719
1.27195
1.75608
1.65808
1.6507
1.77766
1.50542
1.66271
1.63263
1.2674
1.6869
1.746
1.73531
1.50321
1.69215
1.75247
1.8316
0.901019
1.52357
1.74236
1.46587
1.61461
0.927386
1.52315
1.67723
1.62765
1.60976
1.30024
1.07205
1.4932
1.03367
1.50124
1.6465
1.66717
1.56364
1.57236
1.65006
1.51482
1.76653
1.69337
0.647067
1.5613
1.71094
1.70657
1.57955
1.27548
1.21252
1.20033
1.66012
1.67478
1.60692
1.72815
1.75484
1.69568
1.64677
1.75888
1.61131
1.60412
1.78971
1.77346
1.8068
1.2341
1.49964
1.52585
1.55381
1.70507
1.59503
1.47173
1.64951
1.24382
1.92712
1.35176
1.56866
0.925574
1.53208
1.71839
1.68985
1.7867
1.7648
1.50942
1.51669
1.6798
1.66928
1.69862
1.82184
1.7696
1.67858
1.28581
1.41431
1.35067
1.34752
1.73914
1.7521
1.29719
1.75816
1.80425
1.52656
1.77265
1.76856
1.78124
1.41071
1.7743
1.80511
1.22502
1.49193
1.6637
1.69628
1.7632
1.64945
0.606875
1.56287
1.73287
1.70379
1.76629
1.58254
1.78581
1.48596
1.63744
1.77309
1.77976
1.56424
1.40173
1.77707
1.81994
1.20694
1.4931
1.6596
1.28343
1.73341
1.92558
1.48084
0.640519
1.39933
1.77313
1.75516
1.74223
1.73818
1.76066
1.56414
1.52758
1.54748
1.27276
1.79781
1.3735
1.58551
1.1446
1.48571
1.70258
1.5927
1.76088
1.84809
1.11956
1.49933
0.692645
1.55011
1.6989
1.7585
1.63256
1.64712
1.63773
1.58043
1.65855
1.71617
1.31325
1.48336
1.50092
1.73997
1.77141
1.77725
1.54746
1.563
0.64488
1.68782
1.69818
1.53885
1.77805
1.41865
1.59104
1.51531
1.46783
1.7625
1.63138
1.80093
1.77071
1.11272
1.39513
1.59534
1.60528
1.24271
1.84177
1.82868
1.82366
1.82268
1.39124
1.38023
1.21883
1.78238
1.51707
1.6621
1.75713
1.47102
1.62651
1.48657
1.76814
1.75834
1.65455
1.76615
1.82709
1.5085
1.55813
1.68588
1.66803
1.73108
1.3601
1.36898
1.4036
1.77204
1.88154
0.923516
1.48501
1.77676
1.1217
1.12123
1.35628
1.37016
1.7417
1.51429
1.62152
1.78869
1.81709
1.53213
1.48774
1.74724
1.6403
1.41298
1.56329
1.7623
1.68529
1.31695
0.774176
1.52897
1.23103
1.1931
1.47506
1.69509
1.57741
0.972262
1.52084
1.77497
1.82898
1.75125
1.59796
1.76703
1.76485
1.53231
1.7547
1.85915
1.78005
1.85753
1.01043
1.00529
1.50617
1.50188
1.81262
1.59859
1.60083
0.872414
1.52924
1.76559
1.76999
1.20241
1.45025
1.69272
1.60609
1.76806
1.75017
1.44212
1.61162
1.77894
1.40155
1.72849
1.44513
1.58761
1.4928
0.618727
1.68561
1.92378
1.76804
0.717759
1.55536
1.76051
1.70081
1.47595
1.18481
1.43318
1.42473
1.66971
1.23578
1.7154
0.829764
1.52348
1.76264
0.933755
0.905591
1.72963
1.66056
1.37609
0.826869
1.92664
1.75909
1.78787
1.78945
1.82703
1.81751
1.52156
1.53324
1.69534
1.73968
1.43892
1.5873
1.38537
1.7229
1.44682
1.59408
1.58349
1.75512
1.47704
1.78105
1.79079
1.4361
1.42497
1.43034
1.59955
1.5995
1.59381
1.51025
1.74094
1.7281
1.88066
1.76769
0.946842
1.78348
1.47958
1.63563
1.76339
1.36691
1.50188
1.46686
1.75161
1.63721
1.60733
1.59543
1.78037
1.71049
1.45273
1.78153
1.78555
1.82899
1.83424
1.1417
1.15046
1.52383
1.51547
1.73796
1.777
1.72471
1.55141
1.96803
1.68686
1.77178
1.77457
1.52181
1.67382
1.16768
1.70893
1.48499
1.59743
1.79776
1.32973
1.55731
1.68159
1.55104
0.613221
1.54938
0.597826
1.72397
1.67423
1.79264
1.80527
1.69289
1.685
1.75766
1.48232
1.65018
1.70983
1.74978
1.45573
1.61157
1.65872
1.75337
1.87947
1.87553
1.78635
0.988274
0.997351
1.45065
1.4581
1.77627
1.64076
1.5407
1.28399
1.74371
1.87813
0.993978
1.44048
1.53124
1.66822
1.71165
1.72023
1.77149
1.57044
1.83282
1.78822
1.12787
1.46329
1.76918
1.78605
1.52946
1.53354
1.68766
1.6793
1.69329
1.6818
1.60687
1.4863
0.73607
1.52503
1.734
1.8522
1.77177
1.51956
1.67147
1.09654
1.50842
1.69164
1.67393
1.78868
1.74297
1.68623
1.50859
1.21533
1.48224
1.70616
1.61714
1.76634
1.4897
1.65476
1.56417
1.70081
1.38506
1.6089
1.55419
1.76201
0.952447
0.9145
1.7196
1.77032
1.52838
1.52286
1.82346
1.81489
1.78372
1.6516
1.64083
0.823756
1.5252
1.77394
1.67965
1.3882
1.37565
1.10867
1.75234
1.78763
1.53075
1.78838
1.86411
1.04285
1.48127
0.872224
1.5316
1.67044
1.6278
1.68343
1.6473
1.77815
1.79199
1.53945
1.84272
1.75486
1.15532
1.40782
1.6015
1.74016
1.75022
1.70331
1.65282
1.58121
1.20425
1.76449
1.50414
1.67706
1.48161
1.75178
1.42259
1.32568
1.55825
1.65176
1.28896
1.51061
1.77653
1.51024
1.67902
0.927827
1.39173
1.89264
1.73391
1.62739
1.78065
1.50726
1.66528
1.7425
1.69524
1.77309
1.50503
1.65459
1.77697
1.60694
1.75965
1.78825
1.83759
1.83595
1.14927
1.16708
1.49105
1.49698
1.76447
1.47902
1.64637
1.88964
1.83386
1.77101
1.77581
1.05017
1.34428
1.03024
1.34081
1.7779
1.83847
1.07071
1.37642
1.25302
1.74228
1.76186
1.71581
1.59487
1.89958
1.78796
1.34475
1.01396
0.894327
1.60617
1.77782
1.76877
1.56432
1.75591
1.74203
1.50866
1.67521
1.55813
1.63533
1.67862
1.5454
1.63405
1.63787
1.77082
1.71419
1.53709
1.17833
1.76558
1.67593
1.67858
1.68146
1.76408
1.75953
0.904428
0.944035
1.52859
1.53795
1.69603
1.73798
1.72754
1.72331
1.79025
1.83651
1.16162
1.50574
1.73689
1.06034
1.50955
1.68838
1.65477
1.79105
1.75499
1.7778
1.58397
1.45263
1.56516
1.76346
1.46578
1.63437
1.56714
1.35092
1.55329
1.73255
1.80358
1.87637
1.44845
0.972283
1.65059
1.57843
1.46481
1.21124
0.983525
1.52879
1.73542
1.7051
1.6547
1.67718
1.32315
1.55185
1.83841
1.63922
1.21708
1.37228
0.974914
1.53147
1.56565
1.66333
0.666132
1.5468
1.78313
1.71888
1.54113
1.70364
1.33951
1.61456
1.43766
1.65598
1.66076
1.63168
1.58363
1.77532
1.8607
1.80969
1.00719
1.42649
1.75332
1.79642
1.54121
1.5398
1.7807
1.77135
1.55078
1.45521
1.75052
1.40511
1.74781
1.7738
1.75008
1.77125
1.79595
1.8144
1.81942
1.10945
1.1148
1.43541
1.44261
1.56583
1.68153
1.63581
1.793
1.76243
1.54382
1.53785
1.78895
1.63742
0.546011
1.56776
1.66846
1.7511
1.44369
1.42911
1.45132
1.80407
1.75604
1.85827
1.85805
1.04989
1.06102
1.46952
1.46397
1.29744
1.3585
1.72125
1.62112
1.64971
1.69145
1.82804
1.72793
1.72214
1.78683
1.80445
1.53303
1.76875
1.83083
0.926175
1.51952
1.70177
1.56797
1.77951
1.67786
1.73233
1.72225
1.18921
1.1822
1.21294
1.21132
2.83264
2.82606
1.13585
1.13548
1.43587
1.63588
1.61135
1.71153
1.33068
1.33395
1.7213
1.48846
1.49554
1.74154
1.6173
1.51665
1.76149
1.5567
0.6921
1.69021
1.65526
1.93706
1.63296
1.19146
1.35634
1.75323
1.79231
1.86459
1.0364
1.45561
1.6448
1.77245
1.76371
1.51681
1.70231
1.627
1.62434
1.72602
1.90075
0.925879
1.46781
1.78099
1.77026
1.75006
1.70758
1.7375
1.76443
1.90951
1.46512
0.826708
1.52708
1.77753
1.71916
1.77622
1.78444
1.0809
1.53151
1.75902
1.8006
1.54951
1.34266
1.30874
1.21294
1.26679
2.20965
1.41397
1.87894
1.40073
1.8764
1.79199
0.975364
1.47072
1.61604
1.78263
1.74628
1.78095
1.41741
1.587
1.55596
1.63218
1.56133
1.38836
1.72477
1.93545
1.46533
0.682335
1.56729
1.78745
1.74594
1.44655
1.5451
1.63963
1.77051
1.85522
1.497
1.06503
1.0069
0.994763
1.52742
1.53253
1.74465
1.72724
1.74754
1.74906
1.54902
1.77537
1.76208
1.55205
1.736
1.74625
1.7649
1.28028
1.76627
1.42525
1.6015
1.77165
1.83675
1.15621
1.51597
1.73424
1.82915
1.713
1.40698
1.74027
1.44938
1.5957
1.79352
1.88485
0.901879
1.47429
1.36308
1.77184
1.48305
1.64691
1.75305
1.88127
0.995499
1.46892
1.18823
1.48883
1.70801
1.62626
1.56933
1.18365
1.17807
1.33454
1.95653
1.32327
1.61038
2.0293
1.5877
1.72679
1.73368
1.39869
1.38368
1.47464
1.78006
1.40907
1.59616
1.73717
1.74138
1.74138
1.7799
1.87912
1.8634
0.908437
0.930217
1.49298
1.50634
1.33956
1.71337
1.70742
1.77376
1.72011
1.54456
1.75041
1.76634
1.33285
1.5523
1.10674
1.7885
1.61102
1.67241
1.41896
1.75706
1.42826
1.79445
1.83231
1.16866
1.50703
1.66818
1.86768
1.81432
1.33115
0.974365
1.5922
1.726
1.15387
1.49487
1.72831
1.62508
1.58924
1.39412
1.77669
1.68317
1.72804
1.67776
1.79387
1.88871
0.939376
1.44619
1.79634
1.74448
1.82391
1.75541
1.14819
1.47996
1.50225
1.73788
1.68678
1.7311
1.75528
1.75029
1.62345
1.62105
1.75179
1.82111
1.12566
1.45551
1.7238
1.74211
1.64866
1.76905
1.53668
1.69415
1.77663
1.49324
1.6486
1.78542
1.84239
1.1282
1.48033
1.57499
1.48647
1.65245
1.80009
1.74713
1.66264
1.55642
1.54967
1.75012
1.5326
0.644146
1.19769
1.71858
1.47954
1.11853
1.5208
1.61777
1.54508
1.5529
1.85923
1.76336
1.10919
1.38463
1.76547
1.77557
1.67655
1.69352
1.34768
1.4084
1.78078
1.55908
1.74195
1.46807
1.63574
1.66551
1.55896
1.57251
1.37674
1.38821
1.48488
1.49166
1.85129
1.77067
0.91719
1.51026
1.64845
1.37112
1.48606
1.6557
1.44106
1.79679
1.75774
1.84466
1.85241
1.09624
1.113
1.49037
1.49332
1.02219
1.75997
1.47306
1.64346
0.984073
1.52793
1.6523
1.46831
1.63319
1.54961
1.78616
1.76953
1.51904
1.51463
1.68071
1.66628
1.0919
1.74911
1.5703
1.74253
1.82196
1.35363
1.42936
1.68443
1.53076
1.76717
1.87125
0.946877
1.4966
1.76823
1.76922
1.54793
1.75071
1.80537
1.28811
1.52126
1.77397
1.46074
1.61657
1.30852
1.30076
1.64574
1.7179
1.77137
1.87538
0.979531
1.47798
1.71085
1.82355
1.725
1.64749
1.6791
1.31657
1.45976
1.75553
1.86652
1.50983
0.788867
1.78193
1.83582
1.12566
1.48914
1.38262
1.50074
1.74769
1.66797
1.71803
0.953767
0.971368
1.52553
1.52899
1.70548
1.70705
1.71274
1.71042
1.79483
1.78535
1.38543
1.37722
1.56593
1.58115
1.77635
1.10616
1.7415
1.52003
1.66594
1.52133
1.75457
1.42913
1.58968
0.897771
1.53743
1.7292
1.73771
1.51152
1.78629
1.73094
1.74766
1.61857
1.5095
1.73158
1.71297
1.7844
1.78498
1.7992
1.76655
1.17093
1.42485
1.68052
1.5273
0.654511
1.56083
1.25389
1.25074
1.26568
1.47149
1.78933
1.81579
1.22322
1.52157
1.75531
1.49741
1.73613
1.66894
1.76987
1.52452
1.72703
1.7676
1.60509
1.72408
1.66731
1.72792
1.83489
1.79644
1.12396
1.424
1.60977
1.78866
1.81401
1.22392
1.50808
1.66414
1.62212
1.75313
1.36765
1.54381
1.76728
1.84589
1.51626
1.78078
1.72124
1.71787
1.50462
1.74501
1.69126
1.32351
1.32215
1.42705
1.41595
1.64358
1.26065
1.34722
1.45828
1.73046
1.59632
0.644914
1.55807
1.73632
1.66917
1.33361
1.31631
1.73231
1.75118
1.46556
1.6387
0.862943
1.37566
1.49453
1.76643
1.78362
0.99556
1.53136
1.73443
1.73653
1.74863
1.89229
0.698363
1.50203
1.59095
1.58179
1.63507
1.64073
1.7704
1.72331
1.5326
0.965493
1.61349
1.85338
1.78499
1.36077
1.03797
1.64788
1.64303
1.47551
1.78006
1.63179
1.76779
1.75735
1.54463
1.7765
1.75671
1.44763
1.44608
1.6063
1.61867
1.5619
1.49414
1.47627
1.7805
1.76147
1.53359
1.34243
1.5667
1.75074
1.48198
1.63504
1.78662
1.79214
1.50653
1.45832
1.24311
1.39976
1.79692
0.887179
1.15911
1.69695
1.53942
1.68562
1.77266
1.76944
1.58976
1.65612
1.7602
1.77881
1.61359
1.62097
1.72128
1.71246
1.77468
1.64728
1.36938
1.4895
1.77635
1.82075
1.52812
1.55781
1.55674
1.29123
1.6592
1.76549
1.21995
1.23663
1.24974
1.24387
2.42504
2.54302
1.24716
1.25576
1.51983
1.74529
1.72167
1.75426
1.92806
0.730849
1.45875
1.64625
1.64818
1.16646
1.73988
1.80227
1.24812
1.50782
1.80468
1.79962
1.30908
1.32013
1.5394
1.54848
1.76179
1.84821
1.09998
1.46231
1.77862
1.73181
1.89268
1.89297
0.835052
0.870183
1.4829
1.48815
1.76079
1.83127
1.52228
1.69539
1.94101
0.754147
1.45251
1.66858
1.75059
1.7665
1.45981
1.62313
1.78356
1.22668
1.33026
1.75917
1.73563
1.37481
1.42955
1.52696
1.57723
1.29241
1.66585
1.66839
1.71475
1.69495
1.77721
1.77355
1.30612
1.31931
1.51466
1.53256
1.50315
1.76063
1.67199
1.7327
1.71854
1.70686
1.71533
1.5365
1.93665
1.76327
0.677947
1.45446
1.66356
1.62232
1.7319
1.78073
1.76444
1.43657
1.42865
1.59377
1.61208
1.09103
1.68777
1.27636
1.44044
1.48545
1.66677
1.65832
1.65587
1.27196
1.27341
1.84868
1.74883
0.943839
1.51645
1.76287
1.80072
1.80895
1.55419
1.54467
1.67347
1.74123
1.76679
1.82417
1.52782
1.54623
1.86824
1.77833
1.04984
1.35357
1.78321
1.31671
1.5672
1.56128
1.77122
1.49971
1.66283
1.37732
1.09177
1.7163
1.64205
1.62797
1.76617
1.72568
1.92234
0.845068
1.69788
1.63634
1.77926
1.39247
1.56979
1.65492
1.74103
1.78435
1.74376
1.53735
1.61932
1.6225
0.967189
1.72484
1.27021
1.71122
1.43102
1.68396
1.66696
1.73564
1.87328
1.96802
1.72949
1.71186
1.0831
1.07483
1.33292
1.32786
1.49098
1.50102
1.07587
1.0186
1.48331
1.56792
1.48818
1.59737
1.74969
1.67826
1.47979
1.73529
1.6477
1.77919
1.90395
0.853857
1.73001
1.53073
1.53779
1.82764
1.7895
1.05649
1.36404
1.40076
1.53533
1.56361
1.01947
1.33309
1.94511
1.7604
1.52759
0.887067
1.52215
1.59232
1.38593
1.59979
1.7657
1.80561
1.72304
1.89809
0.589158
1.50886
1.41156
1.65389
1.72884
1.31184
1.48718
1.61132
1.71525
1.78901
1.77908
1.60542
1.61641
1.48822
1.30824
1.45011
1.76836
1.73799
1.04633
1.50614
1.68115
1.62066
1.72462
1.191
1.28307
1.47436
1.49124
1.5253
1.67569
1.63808
1.87556
1.77631
0.981267
1.46255
1.66316
1.78028
1.45114
1.61804
1.76106
1.90174
0.87701
1.46737
1.15613
1.67491
1.48491
1.60253
1.64245
1.94525
1.753
0.69456
1.43791
1.77466
1.90549
0.843988
1.37966
1.4552
1.73254
1.42334
1.56398
1.76596
1.85631
1.50502
1.75834
1.66376