/*--------------------------------*- C++ -*----------------------------------*\
| =========                 |                                                 |
| \\      /  F ield         | OpenFOAM: The Open Source CFD Toolbox           |
|  \\    /   O peration     | Version:  2312                                  |
|   \\  /    A nd           | Website:  www.openfoam.com                      |
|    \\/     M anipulation  |                                                 |
\*---------------------------------------------------------------------------*/
FoamFile
{
    version     2.0;
    format      ascii;
    arch        "LSB;label=32;scalar=64";
    class       volScalarField;
    location    "1";
    object      sigmaEq;
}
// * * * * * * * * * * * * * * * * * * * * * * * * * * * * * * * * * * * * * //

dimensions      [1 -1 -2 0 0 0 0];

internalField   nonuniform List<scalar> 
26526
(
0.891839
1.20428
1.17793
1.16712
1.15412
1.06212
1.70398
1.07768
1.67612
1.23336
0.832153
1.14659
1.35562
1.42089
0.932324
0.938512
1.37181
1.35847
1.42068
1.43247
1.25697
1.18887
1.05392
1.07381
1.57851
1.23865
0.866383
1.00791
1.17958
1.05419
1.0377
1.37886
1.06978
1.39608
0.950009
0.83315
1.60633
1.26687
1.79799
0.979597
1.10456
2.99607
0.888795
1.56515
1.80106
1.10657
1.38172
1.42518
0.993809
0.772644
1.87457
1.29396
1.11236
0.924599
1.4511
1.36705
1.42257
1.62483
0.960003
1.22685
1.52012
1.4719
1.47714
1.15497
1.16678
1.29424
1.9262
1.8628
0.95907
0.958955
1.07991
1.10401
1.62224
1.6139
1.01149
0.768041
0.766397
0.848737
0.865224
1.38542
1.38808
1.36191
1.76442
1.04836
1.08409
1.31142
1.02417
0.712402
1.49641
0.886086
1.64101
1.21813
1.33565
0.915508
1.60404
1.18713
1.30357
1.313
1.04805
0.860361
0.894773
1.89209
1.89585
1.09028
1.48237
1.5154
1.09022
1.40923
1.40309
1.86489
0.980067
1.90645
0.976162
0.953523
0.957099
1.76309
1.76969
0.882651
1.24598
1.68569
0.956209
1.20779
1.53242
1.22809
2.02023
0.963226
0.968977
1.7453
1.21385
0.787348
1.85387
1.14679
1.21643
1.3523
1.16713
1.50127
1.13845
0.619298
1.79081
0.912145
1.16513
1.41122
0.721948
0.729533
1.77519
0.812379
1.19245
1.07803
0.924145
0.866663
1.58227
1.28076
1.24227
1.10895
1.11652
1.00629
1.29273
1.08578
1.52606
1.02083
0.881345
1.65847
1.19361
1.40124
1.4132
1.21868
1.48941
0.950476
1.29871
1.47156
0.885758
1.24606
1.76153
1.04906
1.35177
1.02502
1.03984
1.66283
1.00803
1.14325
1.1416
1.21708
0.952784
1.19397
1.46398
1.01128
1.02614
1.6733
1.1341
0.920331
1.50345
1.35509
1.43104
1.60583
1.40676
0.873587
1.64867
1.19871
2.02684
0.9681
0.954509
1.78622
1.0969
1.45883
1.12169
0.81547
1.86273
1.36823
1.06875
1.34825
0.974638
0.940921
0.935358
1.1207
1.1213
0.915233
1.57911
1.27778
0.98324
1.58313
1.05142
0.874125
1.88329
1.2234
3.11693
0.885054
1.56134
1.01045
1.11266
0.974004
1.85639
1.41349
1.1596
1.22165
2.02853
0.928931
1.17307
1.5449
1.13795
0.949901
1.32783
1.02813
1.65493
0.950243
0.934384
1.85176
1.37287
1.16032
0.871092
1.64056
0.748911
1.84786
1.19679
1.14788
1.64109
0.970566
1.17181
1.55932
0.991893
1.18328
1.14558
1.12971
0.874961
1.63744
1.22064
1.32152
1.32237
1.02367
1.91459
1.76183
1.07918
1.19901
1.00074
1.14285
0.85582
1.53554
1.31271
1.16435
0.957524
1.77058
0.918977
1.11675
1.20812
1.00454
2.70043
0.918093
1.69503
0.999604
0.888964
1.88743
1.56123
1.06353
1.26751
0.974427
1.02743
1.20895
0.989495
1.10587
1.56145
1.60344
1.54043
1.03186
1.02609
1.06681
0.904913
1.07039
2.29863
0.88771
1.21259
1.49873
1.55093
1.41743
1.42714
1.32165
0.999408
0.996978
1.41406
1.4323
1.40238
1.38665
1.05377
0.958309
1.09955
1.72311
1.02994
1.54212
0.884835
3.81235
1.11937
1.82506
1.45452
1.1862
0.973213
1.30788
1.00583
1.18563
1.47038
1.12501
1.12571
1.92997
0.834371
1.37807
1.39595
1.26338
1.82533
0.949816
1.17094
1.55872
0.986696
1.09714
1.73147
1.11186
1.31819
1.18968
1.2027
1.04853
1.04806
1.62692
1.63702
1.46929
1.10903
1.06455
1.03173
1.15879
1.25597
1.38693
0.704761
0.928134
0.969489
1.91044
1.70064
1.08504
1.28257
0.857445
1.84836
1.84464
0.891259
1.41053
1.41148
1.5377
1.54842
1.13445
1.07605
1.09316
1.06969
1.65848
1.24692
0.829162
1.13292
1.19813
1.13128
1.27462
1.24922
1.25559
1.41163
1.11738
1.13159
1.09317
1.32699
1.31621
0.766706
0.817462
1.69206
1.20519
0.810952
0.812677
1.16868
1.40283
0.956876
0.937037
0.953258
1.14072
1.14168
1.83707
1.02584
1.08659
1.5695
0.991595
1.60993
0.824189
1.87734
1.32905
1.11796
1.00714
1.28757
0.767942
1.18595
1.8272
1.06961
1.06268
1.03513
1.01237
0.992974
1.46379
0.978861
1.23641
1.51887
0.920012
1.16831
1.60341
1.30129
1.18215
1.04539
1.03666
0.98557
0.833224
1.59507
1.27716
1.00588
2.39673
2.33151
0.929536
0.934344
1.0444
1.0313
1.65426
1.66799
1.41177
1.0437
1.16515
1.20469
1.81069
0.951943
1.17497
1.55247
1.18637
2.61721
0.92565
1.68112
1.01503
0.930879
1.49525
1.34529
0.959736
0.800793
1.65278
1.24557
1.0166
1.32202
1.1613
3.01534
0.892816
1.58616
1.10241
0.963117
1.27965
2.88531
0.904059
1.03976
1.61981
1.18406
1.18375
1.01977
1.3359
0.698749
1.84095
1.13361
1.09323
1.16328
0.792081
0.811645
0.715174
0.953893
0.73364
0.993485
0.71296
1.85855
1.16319
1.12327
1.18215
0.875195
1.87498
1.09791
1.45453
1.75626
0.827477
1.16614
1.97021
0.968852
0.985049
1.735
1.49398
1.76773
1.01582
1.80696
1.0125
1.34627
1.33652
0.897164
1.64189
1.19639
0.992033
1.09766
1.6154
1.09504
1.0322
1.04005
1.5191
1.73323
1.17136
0.848668
1.86268
1.45788
0.89331
1.63708
1.17518
1.70072
0.991359
1.73667
0.991061
0.953742
0.961611
1.74545
1.74883
1.32148
1.5199
0.979636
0.986901
0.940476
0.864373
1.02713
1.02825
1.38706
0.857104
1.69484
1.16077
0.845241
1.3332
1.3434
1.10216
1.46178
1.38539
1.31613
1.27281
1.3248
1.0554
1.61024
0.889565
1.88736
1.00701
1.03478
1.59416
0.858659
1.86507
1.18826
1.43329
1.3148
1.74615
0.738931
0.704938
1.85176
1.1357
1.10863
1.5446
0.994391
1.12194
1.60501
0.808344
1.86424
1.4029
1.05968
0.985765
0.977772
1.29962
1.63744
1.04754
0.904691
1.88211
1.10497
1.45159
1.70499
1.33162
4.06074
0.80263
1.2265
1.30946
0.937627
1.49186
1.34557
1.18267
1.73494
1.74764
0.856286
0.837359
1.21196
1.20445
0.961641
0.985854
1.63874
1.25532
0.704405
1.85639
1.16348
1.1029
1.59168
0.990578
1.09391
1.62946
1.24394
1.03784
0.980558
1.34016
0.840302
1.2333
1.4627
1.03223
0.999138
1.30244
0.986883
1.53665
1.27141
1.17059
1.39839
1.40017
0.976022
1.26779
1.41195
0.924323
2.79397
1.76483
0.996422
1.31509
2.99297
0.796071
1.13027
0.907972
1.82509
1.72956
1.00523
1.17359
1.062
1.13237
1.44317
1.69393
1.24384
3.88709
0.761276
1.21861
1.2562
1.06534
1.01999
1.01953
1.52168
1.53023
1.02672
1.35827
1.37267
1.30938
1.38863
0.631113
1.82305
0.995591
1.14688
0.905449
1.62544
1.20883
0.860254
1.88765
1.44042
1.08993
1.02104
1.08511
1.71988
1.19376
1.04882
1.67175
1.38538
1.01433
1.79241
1.03049
0.952891
1.62878
0.907387
1.33867
1.4382
1.56077
0.996793
1.63886
0.870786
1.69059
1.16218
1.40579
1.09271
0.951965
1.04766
1.01531
0.823926
1.19794
1.27193
1.11112
1.2268
1.06096
1.05822
1.01837
0.997836
1.09915
1.55396
1.03793
0.905089
1.51254
1.32593
1.76766
0.983185
1.09366
1.04599
1.32977
1.21731
1.87468
0.826778
1.39615
1.38306
1.3174
0.845455
1.6205
0.78643
0.992428
0.843499
1.2742
1.13188
1.29129
1.09114
0.93849
1.17329
1.54765
1.06193
0.962706
1.11622
1.60557
0.996208
0.79347
1.48229
2.234
0.88376
1.23199
1.48456
1.27827
1.56977
1.58007
1.23523
1.25168
0.971626
1.7967
1.65124
1.08714
0.976702
0.848033
1.43505
1.45078
0.973299
0.926788
1.15764
1.61284
1.47996
0.996616
1.1409
1.58746
1.04905
0.925152
1.86706
1.58195
1.41198
1.57822
1.07479
1.03352
1.05871
1.13301
1.38188
1.25983
0.73841
0.854026
0.836845
1.69023
1.69686
1.18221
1.18111
0.839037
0.842695
1.21209
1.051
1.72308
1.28258
1.55678
1.38782
0.906433
1.40626
1.3985
1.33594
1.23053
1.2212
1.33378
0.997356
1.54254
1.27321
1.05232
1.36426
1.3955
1.27309
0.809557
1.01695
1.51542
0.95306
1.3
1.45912
0.988315
1.20001
1.54563
0.825267
1.45494
1.30499
1.78218
0.737537
1.04108
1.40045
0.82599
0.859567
1.8561
1.8601
1.48569
1.02875
1.1799
0.847027
1.64781
1.23254
1.51544
1.0096
0.989394
1.70953
1.23328
1.33583
1.15653
0.976394
1.85149
2.1369
0.981507
0.728773
1.25426
0.83191
2.68685
0.884061
1.13911
1.52976
0.907587
1.84246
1.30191
1.16958
1.6366
1.11769
0.788812
1.25199
1.75343
1.00473
0.991493
1.09848
1.53559
1.36446
1.02911
1.15443
1.14908
1.37655
1.24719
1.38506
1.41085
0.673704
0.657549
2.91355
0.795054
0.832165
1.01611
1.32165
1.53454
1.54197
0.851354
1.31165
1.06665
0.986558
1.54315
1.25877
1.34647
0.961493
1.15236
1.22453
0.907255
1.84899
1.23092
0.969628
0.873605
1.56178
1.29838
1.01173
1.56662
1.28214
1.10772
1.16439
1.27499
0.886979
1.26493
1.35457
0.975178
1.00449
1.47832
1.34563
1.44591
1.33458
0.959098
1.27477
1.26237
1.24413
0.941403
1.86477
1.10002
1.73208
0.647555
1.8327
1.00949
1.12738
1.85323
0.899871
1.34573
1.44783
1.57031
1.57791
1.96833
0.982777
0.935104
1.82192
1.21529
1.04365
1.62554
1.2891
1.27968
1.06481
1.08916
1.068
1.58597
1.69703
1.50808
0.776217
1.3134
1.22681
2.91639
0.897824
1.06072
1.59057
0.620178
1.79909
0.923491
1.1611
1.49152
1.03264
1.49858
1.48176
0.886282
0.8854
1.4074
1.41383
1.39048
1.38993
0.803941
1.64419
1.24697
0.62587
0.617143
0.869016
0.890637
1.78055
1.78416
1.16628
1.16536
1.21446
0.700771
0.783245
1.86616
1.34346
1.07191
0.982719
1.85275
0.952811
1.77371
1.07913
1.4854
0.865417
1.43376
1.37257
1.06123
1.54075
1.01303
0.920847
1.76989
0.910875
1.53504
1.31465
1.35376
1.15721
1.05054
1.58839
0.983144
1.03128
1.02347
1.4488
0.902943
1.59073
1.26253
2.7679
0.908477
1.05706
1.60907
0.845406
0.834937
1.63601
1.64405
1.24281
1.24065
1.2154
1.0345
1.37371
1.40293
1.31125
1.30923
1.14182
1.00611
1.29875
1.7463
0.838341
1.41526
1.38053
0.965148
3.06367
0.899058
1.59389
0.904935
1.31991
0.881632
1.7836
1.13224
1.32404
1.32361
0.79876
1.86588
1.25868
1.13312
1.05035
1.88429
1.5637
1.14264
0.684547
1.04208
1.37435
1.33713
1.16406
1.00328
1.61185
0.935629
1.76436
1.12001
1.06398
1.60646
0.871074
1.25264
0.882989
1.86678
1.26207
1.43843
0.964194
1.19534
1.35834
1.49287
0.998577
1.14023
1.59382
1.20049
1.20629
1.32668
1.14825
1.05315
1.53145
0.876549
1.41398
1.38768
0.952125
0.944731
1.472
1.4748
1.35969
1.35763
0.885517
1.05014
1.65048
0.80251
1.24942
1.05736
0.797287
0.810216
1.22135
1.26889
1.06263
1.05671
1.81391
1.82291
0.926557
1.59616
1.22295
1.85584
0.873665
1.33837
1.42253
1.53645
1.47532
0.951244
1.45912
1.36808
1.50886
1.6201
1.22985
3.4549
1.07142
1.05572
1.77305
0.947888
1.19782
1.535
0.985098
0.994663
1.09527
1.09431
1.69943
1.70278
1.74828
0.836408
1.17204
1.21654
1.51992
1.46689
1.46954
1.08164
1.06687
1.60438
1.00692
1.67707
0.927987
2.73173
1.7545
0.983306
1.24106
1.39255
1.13368
1.17031
0.861111
1.51694
1.32715
1.05949
1.3005
1.01416
1.29748
1.04409
1.39318
1.04958
1.18457
1.51762
0.902605
0.890643
1.24535
1.0037
1.15282
0.957486
1.12967
1.54923
1.59049
1.27491
1.10833
2.47091
0.894554
1.15601
1.53663
1.76893
0.933416
1.10864
0.981599
1.1052
1.61033
1.06451
0.917222
1.1642
1.62978
1.12597
2.05545
0.972109
0.959546
1.79287
1.34604
1.54264
2.02659
2.0797
0.797127
0.798959
1.69364
1.21608
0.946923
0.948498
1.5439
1.55647
1.29724
1.29002
1.9984
0.926631
1.1821
1.53953
0.959054
1.57459
1.23776
1.34896
1.7967
0.784171
1.18006
1.09495
1.16443
1.56246
1.0033
0.975336
1.71868
1.34271
1.00854
1.99575
0.977983
0.947093
1.79925
0.890242
1.73027
1.13277
1.61083
0.95879
1.23166
1.51601
1.19532
0.997258
0.862742
0.92466
1.13323
0.915302
0.916833
1.60327
1.6137
1.23514
1.22621
1.53432
1.47844
1.0004
1.60628
0.81712
1.11736
1.00766
1.64823
1.31419
1.50806
1.2962
1.54055
1.33231
1.69203
0.827997
1.43457
1.3633
0.963403
1.57366
1.246
0.918943
1.53531
1.31353
1.76394
0.916219
1.11652
1.2037
1.05034
1.71665
1.46236
2.00226
0.981429
0.958392
1.82698
0.729794
1.19751
1.8609
1.12464
1.65106
1.71484
0.992552
0.999
0.957751
0.937366
1.76155
1.74842
1.30771
1.51661
0.864269
1.71903
1.14282
1.2713
1.00978
0.880927
1.55622
1.30198
1.29789
1.36199
1.47758
0.684632
1.49635
1.50728
1.03066
0.959728
1.73229
1.47957
1.01588
0.989041
0.976291
1.01741
1.67295
0.926021
1.12531
1.69903
0.914893
1.12427
1.07395
0.927707
1.60788
1.20348
1.43877
1.006
1.13668
1.59826
1.52509
0.999259
1.63131
1.34193
1.3426
0.893292
0.876559
1.65123
1.65678
1.17919
1.17623
1.42375
1.04002
1.33354
1.05708
1.62857
0.908023
1.89208
1.21271
1.01167
1.18571
1.16129
1.47372
1.02478
0.872567
0.849351
1.88378
0.95218
0.786811
1.11783
1.32051
0.992737
1.40805
2.09494
0.944915
2.01684
0.945656
1.10369
1.0777
1.62248
1.6067
0.732871
0.991976
0.822581
1.76892
1.05043
1.07925
0.883343
1.23827
0.983136
1.87877
1.51631
1.14223
1.21185
1.26924
1.47649
1.01035
1.027
1.67734
1.19805
1.0495
1.65477
1.0529
0.809344
0.831567
1.65683
1.23083
1.39156
1.39993
0.99333
1.73702
1.72031
0.993369
0.951499
0.925228
1.76666
1.77319
1.30164
0.942311
2.12075
1.07987
1.62638
1.66343
0.906272
1.13379
0.988437
1.09918
1.52231
0.950205
0.879905
1.57279
1.28957
0.888972
1.63501
1.19829
0.826098
1.73824
1.17736
1.31716
1.37834
2.88074
0.744701
1.15121
0.813439
0.805825
1.68652
1.22435
1.20312
1.20478
1.50676
0.925231
0.867007
1.59468
1.27462
0.901584
1.64197
1.17287
1.03935
1.49177
0.917065
2.71765
1.01047
1.66608
1.12832
1.3254
1.3415
0.911494
3.23789
0.9968
1.67311
0.80481
1.68972
1.22233
1.48493
0.989298
1.19166
1.55271
1.56319
0.883512
0.825813
1.62964
1.25479
1.80752
1.80312
0.773264
0.775201
1.1805
1.0994
1.12634
1.17587
0.924872
1.82419
1.85691
0.994525
1.16642
1.13688
1.04309
1.0366
1.8903
0.981395
1.55518
1.13058
1.15144
1.62147
1.0099
1.16294
1.52371
1.53647
0.915826
2.72752
1.65058
1.02964
0.99301
0.813283
1.61891
1.26187
1.02407
1.40152
1.00619
1.16488
1.57288
1.73112
0.856558
1.15009
0.87507
1.72549
1.14096
1.4449
1.18769
0.884209
2.73599
1.13338
1.53781
1.46612
0.951974
1.11993
1.60735
0.929432
1.59807
1.23561
0.980489
3.08113
1.48704
1.24937
0.841627
0.782224
1.28727
2.05787
0.870825
1.29739
1.44725
1.14812
1.10572
0.831639
0.830291
1.55596
1.56525
1.29832
1.2969
1.06454
1.04291
1.20184
0.900936
1.87975
1.27137
1.94066
0.960001
1.06299
1.64124
1.1118
1.19951
1.29001
1.23732
1.03634
1.6008
1.39042
1.70479
1.33809
0.807486
0.887618
1.13547
1.45563
1.74184
1.13121
0.790395
3.71145
1.20879
1.26708
0.885751
0.895076
1.64072
1.64808
1.18711
1.18684
1.55243
1.47312
1.77794
0.853103
1.19429
1.11046
0.983469
0.99427
1.51315
1.27575
0.936079
1.19517
1.20535
1.03044
1.26887
1.16002
1.05706
1.66239
1.4874
0.838983
1.46431
1.35241
0.844793
1.34658
1.27579
1.03918
1.6981
1.21069
0.896392
0.914034
1.83169
1.82911
1.22381
1.35089
1.87785
0.788193
1.08813
0.991071
1.0053
1.09442
1.09892
1.56173
1.56656
1.2242
0.85457
1.10204
1.73195
1.21589
1.22567
1.69903
0.950443
1.22056
1.52076
0.970876
0.852495
1.5785
1.28758
0.931156
1.81944
1.8282
0.993593
1.05098
1.39723
0.972876
1.48786
1.18814
1.77338
1.78038
0.917881
0.934852
1.20137
1.17024
1.19247
1.19606
1.77373
0.949651
1.11032
1.41306
1.55424
0.947061
1.28122
1.48152
1.18661
1.27742
1.04454
0.661135
1.10911
1.06946
0.881647
0.870723
1.51883
1.54028
1.32682
1.30875
1.54749
0.913977
1.35314
1.42686
1.2424
1.28233
1.38142
2.26581
0.946472
0.998013
1.72084
2.33015
0.938481
0.987454
1.73493
1.6209
1.24033
3.54618
1.10709
1.33227
1.37797
1.23307
1.77034
0.836492
1.40664
1.38493
0.960363
1.88622
1.36823
0.829268
1.70103
1.19326
1.65928
0.887967
1.36292
1.41968
2.05582
0.879769
1.28211
1.45944
1.88563
0.961386
1.79503
0.981914
1.10473
0.910716
1.86232
1.39694
0.90627
1.86305
1.23628
1.04023
1.62918
1.22702
0.900908
1.75499
1.12612
0.887729
3.30975
1.57084
2.33666
0.951598
1.79698
0.982888
1.20868
0.905899
1.86531
1.4328
1.45495
1.34354
0.762542
1.33892
0.770397
2.09703
2.01614
1.09456
1.06014
1.55927
1.22819
1.79233
0.979317
1.10091
1.22329
1.29908
0.728157
1.84608
1.14319
1.09511
1.24244
1.02565
1.38893
0.832712
1.70398
1.18311
1.75945
1.03221
1.0818
0.803499
1.3915
1.29908
0.833447
0.828196
1.70137
1.71669
1.18843
1.17764
1.61973
0.88646
1.3784
1.40903
1.39504
0.988136
1.41165
1.41529
1.22331
1.0496
1.75076
0.661154
0.976718
1.38954
0.843679
1.70468
1.17535
1.04028
1.3707
1.47972
0.840874
1.47052
1.35027
1.79971
1.07674
0.981529
1.38517
0.671363
1.00681
1.16097
1.347
0.966645
1.55705
1.25951
0.916653
0.835962
1.61568
1.25996
1.02113
0.976941
1.76247
1.07122
1.63913
0.983339
0.808712
1.6185
1.26536
1.68218
0.983458
1.0669
1.64099
0.897924
1.57954
1.27825
0.930219
1.18573
0.766109
0.820818
1.67753
1.21926
0.981778
0.984815
1.48762
1.1779
1.4275
1.69515
1.24194
3.6951
0.762714
1.22802
1.22179
1.49704
0.842452
1.38463
1.2694
0.835458
1.51797
1.32416
1.06121
0.905868
1.50421
1.33814
1.26205
1.12136
1.17537
1.22642
1.54532
1.36613
1.33157
1.33909
1.07293
1.06523
1.06437
2.37363
0.916167
1.10449
1.58615
1.76376
1.15332
1.31808
1.08587
1.05167
1.05541
1.19872
1.21567
0.871753
0.772373
0.826125
1.6536
1.23476
1.04251
1.53354
0.869545
3.67496
1.05465
1.81451
1.40835
1.18577
1.90004
0.948319
1.14859
1.56726
0.977008
1.27178
1.25714
1.26464
1.42065
0.921085
1.37471
1.41967
0.907333
1.33373
0.750599
1.14281
1.47571
0.977636
1.87804
1.18896
1.17916
1.65109
1.49462
1.07214
1.03745
1.08473
1.71181
0.887379
3.19955
1.56502
2.22338
0.944613
1.70055
1.01623
1.71246
1.01967
0.887742
1.29414
1.39762
0.949196
1.84053
0.716008
1.1203
1.09018
1.29567
1.15458
1.39141
0.888476
1.68998
1.14055
0.993345
1.7083
1.09174
0.84275
1.66153
1.22082
1.17833
0.795706
1.49605
1.32964
1.9391
1.01368
0.988702
0.987471
1.55061
1.26353
1.26996
1.2763
1.00462
0.847979
1.88141
1.02025
0.943744
1.15514
1.05011
1.28938
1.09097
1.16518
1.62019
0.792661
1.2655
1.05241
1.40707
1.42155
0.958082
1.41797
1.39703
1.00082
1.65976
0.941857
1.76545
0.852593
1.82342
1.21022
1.54107
1.25054
0.851997
0.990915
1.3723
1.88088
0.82486
1.09075
0.797608
1.50576
1.32189
1.14602
1.46524
0.987937
1.2759
1.36434
1.37424
1.11938
1.08694
0.860658
1.88385
0.874393
1.88838
1.4002
1.43701
1.11689
1.11387
1.53707
1.77445
0.850792
1.39138
1.39445
1.78467
1.79716
0.743218
0.795301
1.17804
1.19255
1.06247
1.08327
1.72108
1.4233
1.02877
0.982622
1.81769
0.984733
0.951041
1.76486
1.05539
1.91362
0.876982
1.31901
1.43818
1.08369
1.0445
1.89588
1.60585
1.1289
0.886594
1.32184
0.937878
1.16393
1.60182
1.32277
1.111
1.27746
1.07768
1.05433
1.28351
1.26878
0.888793
1.64085
1.20206
1.36927
0.694241
1.1704
1.14177
0.886732
1.74978
1.12673
1.56253
1.0126
0.916402
1.77854
0.99226
1.76433
1.15503
0.741023
1.86301
1.22123
1.1257
1.46085
1.3353
0.718105
1.83449
0.756702
1.84007
1.13301
1.16302
1.15536
1.15673
1.30842
1.74262
0.905744
1.12641
0.89818
1.89615
1.518
1.09721
1.46881
1.07325
1.03066
1.00459
1.3514
1.32125
1.32769
1.12401
0.871364
1.14117
1.34716
1.06205
1.36127
1.4482
1.05556
1.39896
0.919292
1.39265
1.40871
1.10469
1.5429
1.21199
0.923273
1.65385
1.3064
1.46537
2.10814
1.31999
0.750212
0.752535
1.86237
1.2358
1.09658
0.904458
0.896665
1.6262
1.64005
1.19998
1.18966
1.76212
1.03056
0.991438
1.27541
1.25506
0.667002
1.33517
1.314
1.10406
1.11504
1.26183
1.1698
1.05474
1.68194
1.05031
0.976912
0.989618
1.37007
1.44579
0.911628
1.39077
1.40643
1.24262
0.952669
1.09047
1.06024
0.914135
1.90086
1.08596
1.57664
1.00613
1.48993
0.907766
1.62192
1.2251
0.992929
1.09515
1.54382
1.30963
1.45685
0.93681
1.34658
1.43903
1.23824
0.756745
2.27984
0.955695
1.80837
0.96405
1.38448
1.06994
1.08159
0.991221
1.00149
1.02049
1.54506
0.928864
1.56384
1.49858
1.93063
1.31193
0.771561
0.63894
1.82735
1.02973
1.14777
1.56828
0.976795
1.19192
1.54774
0.860171
1.88772
1.5256
1.06581
1.41098
1.3486
1.35558
0.844669
1.16013
0.792671
1.59534
1.27543
0.78095
1.09434
1.01908
1.09262
1.61128
1.8946
0.91474
1.11079
1.50748
1.42563
0.906409
1.58561
1.27028
1.6877
1.70381
0.839381
1.18176
2.58991
0.839686
1.24655
1.45376
1.46757
1.47783
0.74664
0.881587
0.878362
2.9625
2.83943
1.53877
1.53681
0.736465
0.94787
1.59033
1.22783
0.84238
1.74413
1.15756
1.09571
1.04242
1.03162
1.28997
1.36464
0.973553
1.47253
1.56083
1.19664
1.10114
1.17213
1.00399
0.99975
0.951027
1.86287
0.972374
1.01397
1.68483
1.07797
1.2212
1.24019
1.45278
1.44408
1.04795
1.29705
0.936154
1.24169
1.03673
1.59558
1.78361
0.896981
1.13603
1.72752
0.744106
0.867815
1.15922
1.14902
0.901793
1.82614
0.92333
0.623959
1.81717
0.994336
1.1527
0.93746
1.74406
1.46974
1.01714
1.0785
1.39795
1.01395
1.08407
1.68919
1.63866
0.99058
1.6171
0.994216
1.04555
1.03297
1.6627
1.67037
1.73751
0.768798
0.908805
0.877409
1.81413
1.72857
0.844031
1.40829
1.38252
1.19595
1.32514
1.05139
0.825218
1.68896
1.20349
1.057
0.652591
0.833839
1.75779
1.1684
1.82416
0.971002
2.20553
0.966985
1.0959
0.915358
1.87351
1.12352
1.20169
1.37157
0.903907
1.28058
1.27917
1.30896
0.920171
0.971031
0.888578
1.80654
1.11003
1.04098
1.02735
1.19267
1.34932
1.65623
0.988636
0.911002
3.20242
1.30043
1.27496
1.02685
1.02821
1.59333
1.58939
1.29086
0.820489
1.7377
1.1795
0.640455
0.840804
1.75973
1.17387
0.86551
1.14222
1.35704
1.01269
1.01321
1.47543
1.46107
1.47382
1.34656
1.35898
1.35561
1.11346
1.10845
1.17159
0.9568
1.97442
1.05487
0.88036
1.64918
1.21258
0.844341
1.48593
1.35182
1.70465
0.833384
1.1777
1.4082
1.41388
0.967019
1.18878
0.688341
1.34502
1.39376
1.01122
1.01716
1.13264
1.1362
1.59532
1.59435
0.987895
0.924042
1.15696
1.60914
3.17089
0.803637
1.09023
0.938387
1.58396
1.22656
0.631247
1.00484
1.8237
1.14677
0.979865
1.41327
1.40109
1.27266
1.89045
0.908868
1.89332
0.920711
1.68359
1.69975
1.04702
1.04894
1.25771
1.26108
0.84305
1.71346
1.16429
1.22596
0.829218
1.73208
1.17965
0.909759
2.14318
0.938871
0.931779
2.10288
1.10851
1.12225
1.59095
1.58356
0.962481
1.27503
1.3247
0.848898
2.2973
0.919718
1.12586
1.57191
0.906618
1.31509
1.17627
1.27343
1.05679
1.56508
0.92063
1.78915
1.27148
1.4771
0.936023
0.941918
1.58877
1.59882
1.21206
1.20619
1.26738
1.26742
1.4042
1.40415
0.922773
1.82689
1.7892
1.00023
0.9585
1.56928
1.23791
0.686432
1.83723
1.05802
1.10529
0.953234
1.13272
0.936967
1.09245
0.61887
1.81807
0.945928
1.13615
0.899089
1.6185
1.22381
1.55634
1.07237
1.09497
1.14563
1.03893
1.04538
0.902331
0.889796
1.42418
1.47821
1.78671
1.77789
1.02792
1.02148
1.02028
1.35687
1.34867
0.908125
1.81235
1.08879
1.30937
0.86461
0.852513
0.910709
1.18949
1.05617
1.73629
1.74535
0.969711
1.12013
1.59513
0.786591
1.86956
1.27843
1.12851
1.28918
1.35947
1.15974
1.05667
1.67772
2.19299
0.826979
1.33269
1.41144
1.01633
0.980334
0.988209
0.969211
1.24691
0.863122
0.745902
0.87672
1.65427
1.18361
0.727228
1.1493
1.32783
1.35568
1.44335
1.34768
1.30727
1.13169
0.876755
1.69616
1.14678
1.05181
1.59891
0.902118
2.96311
1.35991
0.882419
1.6577
1.18493
1.08875
1.23569
0.946937
1.57451
1.2493
1.05762
1.39379
1.52431
1.57285
0.958638
0.961051
1.25039
1.26466
1.50547
1.49557
0.872523
1.64579
1.2052
3.36858
3.4678
0.859916
0.856596
1.09496
1.50839
1.09092
1.5166
0.851136
2.93934
1.173
1.49164
0.788368
1.15722
1.08175
1.22404
1.24341
3.34816
0.862836
1.52295
1.08432
0.9466
1.33024
0.983554
1.1023
1.56982
1.13788
1.14128
1.72547
1.24219
1.45871
1.32011
1.02386
1.54275
1.25593
1.26254
0.909037
1.16785
1.62063
1.0667
1.06827
0.9312
1.2931
1.30448
1.10769
1.11925
0.773689
0.761164
1.85165
1.85594
1.23296
1.28922
1.07807
1.07556
1.45689
0.98629
1.22478
1.5293
1.11403
0.68312
1.84681
1.08997
1.1135
1.06714
0.979961
1.11205
1.46592
1.36085
1.45978
0.851692
1.6669
1.20582
1.56702
0.820594
1.23545
1.19266
2.20054
0.929417
1.59564
1.10432
1.33838
1.54035
1.00883
0.757659
0.72983
1.84621
1.18177
1.08695
1.31891
1.28467
1.34573
1.45127
2.32768
0.763526
1.39767
1.36036
0.825405
1.81603
1.50582
1.01913
0.912928
1.87601
0.921896
1.15182
1.6242
1.05144
1.50691
1.40063
1.24208
1.35682
1.3245
1.30122
1.47253
1.08868
0.909353
2.35323
1.14085
1.54997
1.08438
1.09324
1.63667
1.64228
1.01736
1.0879
1.63294
1.55647
1.0486
1.3848
1.16362
0.948933
1.14052
2.1067
2.0513
0.880131
0.886754
1.26735
1.26861
1.46834
1.46588
1.55251
1.10107
1.29303
1.11692
1.0775
1.63258
1.62395
1.10832
0.893448
0.970172
1.90744
1.66409
1.08289
0.997371
0.992514
1.67421
1.92782
1.93918
0.942403
0.935044
1.16365
1.17823
1.54833
1.55351
1.13957
1.13476
1.23725
1.1422
1.39327
1.834
1.03181
1.20263
1.19465
1.27347
1.03892
1.69657
1.51867
1.01246
0.915006
1.76657
1.31212
0.834671
0.879458
1.15798
1.12898
0.982578
1.46513
1.44599
1.26574
1.27203
2.74645
2.57969
0.752832
0.710746
1.22046
1.06327
1.08271
0.790744
1.62694
1.62114
0.796646
1.25652
1.26616
1.14007
1.42639
1.68601
1.0088
1.89194
0.887583
1.10748
1.46202
2.47087
0.758833
1.36433
1.37265
0.833359
2.00454
0.935774
1.15766
1.55653
1.08145
1.11898
0.881745
1.694
1.14566
1.35395
1.38629
2.05854
0.954132
1.04847
1.65656
0.979828
0.963004
1.03256
1.23836
1.19491
2.17798
0.949845
1.71067
0.994696
1.69561
0.920265
1.12063
1.21568
1.04976
0.910089
1.74636
1.09774
0.981552
1.33505
1.5989
1.24517
1.28382
1.36295
3.44263
0.681462
1.56614
1.06799
0.949353
2.01886
1.08412
1.62159
1.40677
0.96429
1.78356
0.8794
1.61328
1.25653
1.47341
1.15078
0.879557
0.792925
2.49629
0.935596
1.77175
0.991108
1.46877
0.961634
1.13639
1.68262
1.15729
1.38027
1.69716
0.972411
1.58776
1.13833
0.777994
0.796721
1.81877
1.82424
1.20548
1.22158
1.06296
1.0684
1.28496
0.956772
1.11896
1.5964
1.17478
1.18514
1.65921
0.713066
0.870045
1.61479
1.25368
1.39319
1.00489
1.17939
1.56244
1.55691
1.01686
1.22486
0.656106
0.839365
1.75288
1.17159
2.07291
0.949471
1.03574
1.67151
1.16956
0.852978
1.70237
1.16739
1.95506
0.954837
1.09653
1.61172
0.62736
1.81804
0.972081
1.13368
1.42731
1.28873
1.30554
1.39642
2.98126
1.38778
0.759376
2.89398
0.741895
1.03492
1.04367
1.69872
1.21692
1.1075
0.951206
1.51808
1.32259
1.06282
1.05892
1.75351
1.77648
0.983546
0.98045
0.988726
1.00103
1.70282
1.71709
1.29455
1.25563
1.24523
0.911613
1.15553
1.62728
1.26355
1.05304
1.42254
1.39492
0.983374
0.958007
1.28634
1.16346
1.3778
1.08893
1.23902
1.45993
0.980166
1.2405
1.51603
0.919691
3.63618
0.88383
1.55771
1.02071
1.49003
1.20284
0.621998
1.82619
1.00353
1.12882
1.47791
1.30482
1.02826
1.16906
1.11595
1.36187
2.24545
0.932509
1.07313
1.62143
1.07293
1.15461
0.917787
1.7282
1.28705
1.46904
1.75826
0.892404
1.1259
0.98333
1.11118
1.14589
1.30558
1.31207
1.96342
0.893467
1.27594
1.46865
1.20549
0.989674
1.34356
0.931514
1.59057
1.20664
0.93135
1.59507
1.23754
1.65424
0.951579
1.23953
1.50914
1.50596
0.813098
0.839663
1.06217
1.14913
1.33094
1.49458
1.42503
1.13492
1.86134
0.941388
0.926264
1.14431
1.81051
0.8306
1.1801
1.16306
1.26989
1.25922
2.54374
0.834847
1.25451
1.45063
1.06215
1.06579
1.28629
1.26141
1.65925
1.23822
0.903055
1.31581
0.831103
1.73139
1.1689
0.921094
1.4365
1.52736
1.70925
1.7148
1.21701
1.21871
0.998818
1.63175
0.945445
1.74373
1.32369
1.69204
1.22978
1.35154
0.908907
1.68219
1.61088
0.963049
0.970118
1.18223
1.19651
1.54322
1.55371
1.05116
0.86263
1.65645
1.20453
0.811933
1.81145
0.978088
1.71684
1.17696
1.50018
0.915701
0.910745
1.62181
1.61526
1.20306
1.20369
0.765839
1.10214
1.42834
1.73027
1.02056
0.666313
1.77194
0.899546
1.18201
1.81926
0.973322
1.03065
1.67863
0.967328
1.1098
1.60694
1.19332
0.938592
1.43354
1.38285
0.848963
1.68712
1.19377
0.980156
0.975378
1.36375
1.21284
1.98748
0.95186
1.08391
1.62412
1.72298
1.02881
1.10177
1.208
0.784398
1.61133
1.26658
1.80693
0.989307
1.79274
0.924067
1.70553
0.943836
1.23611
1.51104
1.18907
1.77832
0.913666
1.12702
1.2136
0.755774
0.743438
1.85184
1.85342
1.198
1.22773
1.08248
1.08629
0.963404
0.957861
1.49473
1.4912
1.34395
1.3427
1.06559
0.770705
1.08119
1.11612
1.32227
0.747934
0.821596
1.69288
1.20636
0.790703
1.85258
1.31165
1.06932
1.52685
0.937147
1.13021
1.04608
0.859819
1.52466
1.40552
1.42993
1.04266
1.04575
1.99435
0.837326
1.35991
1.40292
1.2878
1.85545
0.910106
1.0174
1.14469
1.12697
1.11455
1.37038
1.35504
0.970376
1.30888
1.47154
1.06515
1.78803
0.915334
1.11831
1.01413
1.76373
1.08801
1.05325
0.920059
1.06185
1.27913
1.02522
2.13051
0.865321
1.2908
1.44664
1.40828
1.39162
0.944861
1.3514
1.43721
1.3363
0.912279
0.825766
1.62719
1.25428
1.55735
1.00129
1.68309
1.03446
1.07259
1.08473
1.7348
0.876002
1.13129
1.61293
1.6247
1.2653
1.2582
1.31671
0.971715
0.625643
1.77408
0.864552
1.16273
0.905161
1.89683
1.08514
1.54516
0.640359
0.644064
1.01549
0.836108
1.68388
1.19439
0.903946
1.7067
1.21631
0.976055
0.985041
0.775419
1.82969
1.21118
1.07232
2.06873
0.96912
0.952053
1.80626
1.24156
1.24319
1.18772
1.20305
0.90786
1.14348
1.64447
0.889819
1.26871
3.24187
0.860705
1.51462
1.11555
1.36195
1.34953
1.63531
0.891084
1.21969
0.945259
1.11918
1.61677
0.859376
0.843145
1.65766
1.65981
1.21693
1.21704
1.52985
0.81543
0.807824
1.0618
1.07635
1.71129
0.821692
1.54832
0.874982
1.77117
1.14457
1.07111
1.07941
1.27852
1.0496
1.12102
1.29325
1.04552
0.843601
0.892718
1.2248
1.07635
1.00468
0.989741
1.10101
1.47414
1.33528
0.978375
0.998543
1.33801
1.33221
1.21659
1.21695
0.968722
1.27003
1.6903
1.22912
1.20567
1.0392
1.56923
1.19031
1.21106
0.892671
0.933269
1.00854
1.38633
1.30707
1.49348
1.26694
2.22684
3.00762
0.857661
0.686623
1.73707
0.929151
1.11182
2.45986
0.935462
0.980907
1.74834
1.2883
0.968573
0.960658
1.34583
0.916837
1.40595
1.40037
0.969787
0.969838
1.41288
1.42343
1.40322
1.3964
1.85709
0.93081
1.22565
1.50975
2.02168
1.96394
0.960745
0.967457
0.983316
1.00123
1.72481
1.71415
1.28411
1.02188
1.56619
2.44931
0.937894
0.991116
1.73497
1.31165
1.01808
0.853553
1.66777
1.20609
0.979267
1.38956
1.34751
1.00778
1.18145
1.68754
1.23302
1.04078
0.92601
0.771773
0.928608
0.928394
1.15016
1.10815
0.869734
0.864479
1.52137
1.53107
1.32267
1.31929
1.7636
0.898482
1.12563
1.18344
1.20096
1.19748
1.23486
1.38343
0.930062
2.57374
0.983895
1.7635
1.18256
0.966015
1.35584
0.886426
0.8759
1.61661
1.61606
1.2487
1.24668
0.901756
0.781931
1.5324
1.3093
0.722988
1.33367
0.915726
1.36077
1.30095
1.31593
1.00435
1.58585
0.963327
1.73476
0.997052
1.03832
1.04661
1.509
1.50192
1.30664
1.00003
1.22453
1.03533
1.58147
1.57538
3.16686
0.85259
1.13084
1.50301
0.986301
1.18678
1.5689
1.57424
0.87459
1.65396
1.19346
1.13582
0.923934
1.17672
1.36807
0.978835
1.10642
2.41759
0.933509
1.02121
1.20796
1.40146
0.888376
1.58706
1.27647
1.3642
1.16615
0.96082
1.1075
1.67049
1.00631
1.35919
1.05367
1.10809
1.52287
1.60863
1.31035
0.780513
1.16048
0.993129
3.4527
3.4395
0.839283
0.827295
1.126
1.12998
1.48372
1.48018
1.79072
1.78765
0.972475
1.03267
1.18936
1.26764
1.19871
1.29113
0.9934
1.0637
1.75679
0.850462
1.15115