/*--------------------------------*- C++ -*----------------------------------*\
| =========                 |                                                 |
| \\      /  F ield         | OpenFOAM: The Open Source CFD Toolbox           |
|  \\    /   O peration     | Version:  2312                                  |
|   \\  /    A nd           | Website:  www.openfoam.com                      |
|    \\/     M anipulation  |                                                 |
\*---------------------------------------------------------------------------*/
FoamFile
{
    version     2.0;
    format      ascii;
    arch        "LSB;label=32;scalar=64";
    class       volSymmTensorField;
    location    "1";
    object      sigmaDifference;
}
// * * * * * * * * * * * * * * * * * * * * * * * * * * * * * * * * * * * * * //

dimensions      [1 -1 -2 0 0 0 0];

internalField   nonuniform List<symmTensor> 
26526
(
(-1.55493 -0.329698 0 -1.75681 0 -0.993523)
(-2.08106 -0.513816 -5.57225e-19 -1.89353 -6.59224e-20 -1.19238)
(-2.14126 -0.479471 2.8397e-19 -1.88255 2.17555e-19 -1.20714)
(-2.14122 -0.470547 -5.56093e-19 -1.88082 2.46506e-19 -1.20661)
(-2.15809 -0.455801 5.73283e-19 -1.89936 -1.06559e-19 -1.21723)
(-2.24893 0.328794 4.25477e-20 -1.80914 4.70216e-20 -1.21742)
(-1.24442 -0.721656 -9.9525e-19 -2.3016 -6.90221e-19 -1.06381)
(-2.10197 -0.400982 -1.25289e-20 -1.98907 7.87265e-20 -1.22731)
(-0.94741 -0.653917 -7.64792e-19 -2.17803 -2.09245e-19 -0.937632)
(-1.30518 -0.472695 3.61212e-19 -2.03874 4.49472e-19 -1.00317)
(-1.68909 0.103217 8.47945e-20 -2.05426 -1.34708e-20 -1.12301)
(-2.18361 -0.44109 6.27203e-19 -1.87023 6.80626e-19 -1.21615)
(-2.55088 0.332223 1.7042e-19 -1.48266 4.06118e-20 -1.21006)
(-2.61105 0.364475 2.90031e-19 -1.48624 -1.07038e-20 -1.22918)
(-2.26704 -0.158368 1.39615e-19 -1.90768 -1.78502e-19 -1.25242)
(-2.27169 -0.16716 -8.31616e-20 -1.91293 4.69259e-19 -1.25539)
(-0.948398 -0.543566 3.78642e-19 -1.89503 -1.57405e-19 -0.853028)
(-0.936776 -0.534636 -6.69436e-19 -1.88202 -3.4874e-19 -0.84564)
(-1.34575 -0.597134 -3.3731e-19 -2.13282 -3.66816e-19 -1.04357)
(-1.34222 -0.601846 9.15649e-19 -2.14198 6.55645e-19 -1.04526)
(-1.59514 -0.576314 3.59657e-19 -1.93303 -1.33218e-19 -1.05845)
(-2.04937 -0.50613 -2.75534e-19 -1.93554 6.043e-20 -1.19547)
(-2.3783 0.18685 1.12537e-18 -1.70636 -5.10001e-19 -1.2254)
(-2.21587 -0.367285 6.58769e-19 -1.93485 2.35011e-19 -1.24522)
(-1.35232 -0.691532 -5.00338e-19 -2.20856 -3.95511e-19 -1.06826)
(-2.30459 0.372464 3.78574e-19 -1.44347 -1.06308e-19 -1.12442)
(-1.61945 0.118528 1.58831e-19 -2.08198 1.49768e-19 -1.11043)
(-2.28661 -0.238932 -6.08936e-19 -1.8025 3.15641e-20 -1.22674)
(-2.08594 -0.49297 -3.26788e-19 -1.91704 -6.52778e-20 -1.20089)
(-0.894563 -0.355544 -1.58529e-18 -1.68308 -5.75271e-19 -0.773293)
(-2.26091 -0.305378 -1.07346e-20 -1.87047 -4.91642e-20 -1.23941)
(-1.58414 -0.625558 -1.43808e-18 -2.0856 -7.66549e-19 -1.10092)
(-1.99328 -0.424221 -3.77747e-19 -1.82734 -1.90362e-19 -1.14618)
(-1.63273 -0.643535 -1.13862e-18 -2.08537 -6.8773e-19 -1.11543)
(-2.21911 0.0366685 1.71976e-20 -1.55797 4.11746e-19 -1.13312)
(-2.12309 -0.0553656 -1.56122e-19 -1.92613 -2.69375e-19 -1.21476)
(-1.02409 -0.661759 -1.27259e-18 -2.10424 -8.91085e-19 -0.938499)
(-1.48885 -0.532821 2.71048e-19 -2.06422 2.75094e-19 -1.06592)
(-1.12709 -0.732097 -3.09379e-21 -2.35927 4.32423e-19 -1.04591)
(-2.05871 0.316014 5.77855e-19 -1.99355 -5.65325e-19 -1.21568)
(-1.85533 -0.444809 -2.65783e-19 -2.0296 2.59118e-19 -1.16548)
(-3.0113 1.37786 1.27042e-18 -1.15409 -1.46055e-19 -1.24962)
(-2.27532 0.031663 -1.00342e-19 -2.01839 -2.94952e-19 -1.28811)
(-1.00092 -0.584949 -7.10826e-19 -2.16799 -4.5718e-19 -0.950671)
(-1.12151 -0.730072 4.31625e-19 -2.36447 5.19977e-19 -1.0458)
(-1.86448 -0.444177 -1.20242e-19 -2.03951 7.56454e-20 -1.1712)
(-1.75868 -0.654667 -7.13171e-19 -2.02147 -2.86967e-19 -1.13405)
(-1.55518 -0.669942 2.85345e-20 -2.03145 -2.94589e-19 -1.07599)
(-1.0045 -0.337961 -1.03825e-18 -1.69173 -1.16755e-18 -0.808869)
(-0.634943 0.179513 -8.69133e-19 -1.31615 -6.99299e-19 -0.585328)
(-1.06878 -0.711857 2.17753e-18 -2.47849 1.59124e-18 -1.06418)
(-1.70605 0.545837 -4.38861e-19 -2.18776 3.85864e-19 -1.16814)
(-1.73713 -0.43099 -2.82397e-19 -2.09098 -1.38679e-19 -1.14843)
(-2.2643 -0.147672 -9.92662e-19 -1.91877 1.96295e-19 -1.25492)
(-2.6045 0.388623 -4.50953e-19 -1.45328 8.36361e-20 -1.21733)
(-0.925449 -0.536374 0 -1.88455 0 -0.842999)
(-1.31666 -0.592678 -1.82982e-18 -2.12906 -1.52348e-18 -1.03372)
(-2.59031 0.585329 -7.59362e-19 -1.46159 2.27187e-19 -1.21557)
(-2.30856 -0.182329 1.16502e-19 -1.94983 8.2037e-20 -1.27752)
(-0.843638 -0.443899 0 -1.76822 0 -0.783559)
(-1.25419 -0.630008 -5.74388e-19 -2.18328 -4.30398e-19 -1.03124)
(-1.50565 -0.687851 1.28934e-18 -2.06715 6.78617e-19 -1.07184)
(-1.50803 -0.690631 1.68503e-19 -2.07183 3.07096e-19 -1.07396)
(-2.05499 -0.480399 -4.59823e-19 -1.86052 -2.54232e-19 -1.17465)
(-1.94484 -0.507924 -9.4354e-19 -1.8755 -4.71496e-19 -1.1461)
(-1.06368 -0.529858 -5.43431e-19 -1.87065 -3.8677e-19 -0.880301)
(-2.56703 0.861906 -4.09317e-19 -1.52707 9.24397e-20 -1.22823)
(-2.56347 0.814852 1.50006e-19 -1.52448 -3.31603e-20 -1.22638)
(-2.32549 -0.177371 5.12844e-19 -2.019 -1.39333e-19 -1.30335)
(-2.31183 -0.184564 -9.03144e-19 -1.99377 3.64633e-20 -1.29168)
(-0.664332 -0.319601 -1.62209e-18 -1.59878 -7.18921e-19 -0.678934)
(-0.693343 -0.335468 4.90213e-19 -1.63459 -7.31332e-19 -0.69838)
(-1.15558 -0.654726 1.86321e-19 -2.24132 -5.5683e-22 -1.01907)
(-1.18591 -0.657562 -3.03964e-19 -2.24253 -3.54028e-19 -1.02853)
(-0.989198 -0.341084 -8.1215e-20 -1.70459 -2.86909e-19 -0.808135)
(-1.84517 0.143499 -3.62152e-19 -1.54058 1.35044e-19 -1.01572)
(-1.78187 0.180631 2.69934e-20 -1.50599 -1.48628e-19 -0.986358)
(-1.77883 0.141584 -1.90561e-19 -2.07546 -2.7718e-20 -1.15629)
(-1.7736 0.157133 -2.39373e-20 -2.09301 -8.17937e-20 -1.15998)
(-1.4283 -0.634515 4.77657e-19 -1.99673 -4.74891e-20 -1.02751)
(-1.48272 -0.643348 5.46565e-19 -1.99926 3.27991e-19 -1.04459)
(-1.21786 -0.592823 6.16772e-20 -1.94782 3.85687e-19 -0.949702)
(-1.18667 -0.732126 8.81926e-19 -2.34497 7.57298e-19 -1.05949)
(-2.17238 0.356459 3.12601e-19 -1.91645 -2.51022e-19 -1.22665)
(-1.9932 -0.421484 3.43061e-19 -2.01308 2.1747e-19 -1.20188)
(-1.75301 -0.615244 -1.37925e-18 -1.96108 -4.8696e-19 -1.11423)
(-2.2014 -0.30673 -2.02614e-19 -1.78181 -1.00164e-19 -1.19496)
(-1.72503 -0.125512 -5.07321e-19 -1.65252 7.07586e-19 -1.01326)
(-1.55047 -0.697788 7.73501e-19 -2.11681 2.85818e-19 -1.10018)
(-2.2264 -0.0837152 3.35323e-19 -1.88197 -3.5349e-19 -1.23251)
(-1.21131 -0.714958 0 -2.17745 0 -1.01663)
(-1.73105 -0.5355 8.37015e-19 -2.01744 6.58431e-19 -1.12455)
(-1.50097 -0.615197 5.51207e-19 -1.97168 4.83005e-19 -1.04179)
(-2.25993 -0.0925408 6.06243e-19 -1.81561 1.71904e-19 -1.22266)
(-1.36954 -0.722212 -2.10431e-19 -2.18769 -4.30152e-19 -1.06717)
(-1.96502 -0.512539 2.20314e-19 -1.97552 4.11036e-19 -1.18216)
(-1.76249 -0.610238 -4.77201e-19 -1.95763 -2.69955e-19 -1.11603)
(-2.11677 0.588907 5.18071e-20 -1.96316 -2.02439e-20 -1.22398)
(-2.03438 -0.37866 -5.24718e-19 -2.05222 -1.33589e-19 -1.22598)
(-0.37085 0.182469 4.74194e-19 -1.21879 1.60808e-19 -0.476893)
(-0.324263 0.189492 -7.51806e-20 -1.2171 7.18132e-19 -0.462408)
(-1.08451 -0.719082 5.61054e-19 -2.50502 6.35352e-19 -1.07686)
(-1.08189 -0.717446 2.72253e-21 -2.51181 2.37962e-19 -1.07811)
(-1.83635 -0.409239 -1.40556e-19 -2.11977 1.57785e-19 -1.18683)
(-1.74833 0.688831 8.0899e-19 -2.19735 -6.95169e-19 -1.1837)
(-1.65496 0.709095 1.26306e-19 -2.17354 -1.536e-19 -1.14855)
(-1.84669 -0.405075 6.05174e-19 -2.13478 -1.89607e-20 -1.19444)
(-1.71143 -0.670082 -1.62297e-19 -2.03365 3.43752e-19 -1.12352)
(-1.69008 -0.66715 -2.70042e-19 -2.02149 -4.65269e-19 -1.11347)
(-2.24542 0.939919 -8.68046e-19 -1.73879 3.3365e-19 -1.19526)
(-2.25297 -0.247842 1.74965e-19 -2.10623 -1.12017e-19 -1.30776)
(-2.26886 0.966122 -9.12989e-19 -1.78143 3.37964e-19 -1.21509)
(-2.2381 -0.249443 -1.21427e-18 -2.09376 3.9903e-19 -1.29956)
(-0.46574 -0.158269 1.63404e-18 -1.42558 -6.81698e-19 -0.567397)
(-0.433464 -0.137073 2.47208e-18 -1.41527 1.40764e-19 -0.554621)
(-1.10501 -0.701237 1.09944e-20 -2.34688 -9.3902e-20 -1.03557)
(-1.11683 -0.705568 1.95945e-18 -2.35798 1.52779e-18 -1.04244)
(-1.66163 -0.319126 -1.2036e-18 -1.75518 -1.01328e-18 -1.02504)
(-2.02782 -0.553679 2.56385e-19 -1.92413 3.25872e-21 -1.18559)
(-2.66814 0.610495 2.40955e-19 -1.49643 -5.50517e-20 -1.24937)
(-2.30739 -0.176185 -3.08129e-19 -1.94796 2.15812e-19 -1.2766)
(-0.821287 -0.433431 -2.88948e-19 -1.73983 7.19682e-20 -0.768335)
(-1.23715 -0.63238 -8.19232e-19 -2.18873 -6.28178e-19 -1.02776)
(-1.90117 -0.549126 2.12042e-19 -1.97144 -5.56302e-20 -1.16179)
(-2.35112 1.01884 -1.04762e-18 -1.71116 3.91631e-19 -1.21868)
(-2.27856 -0.213826 -2.16272e-19 -2.09818 -8.42858e-20 -1.31302)
(-0.44333 -0.166491 -5.84283e-19 -1.42091 -7.76751e-19 -0.559271)
(-1.09863 -0.692911 -1.9496e-19 -2.32918 -2.04446e-19 -1.02834)
(-2.07549 -0.522194 -3.97603e-19 -1.90167 -1.08624e-19 -1.19315)
(-0.833702 0.252683 5.8015e-19 -1.38849 2.12151e-19 -0.666658)
(-1.04064 -0.694132 7.32447e-19 -2.45595 5.64186e-19 -1.04898)
(-1.60722 -0.451296 -9.18567e-20 -2.07265 -3.56666e-19 -1.10396)
(-1.56897 0.445207 -3.19208e-19 -2.21446 3.99462e-19 -1.13503)
(-1.73041 -0.630136 -4.26503e-19 -2.03604 -5.16376e-19 -1.12993)
(-2.11052 -0.477817 1.60637e-18 -1.86803 1.1598e-18 -1.19357)
(-1.54589 -0.698438 1.4559e-19 -2.12485 -2.46315e-20 -1.10122)
(-1.51079 -0.498354 7.20534e-19 -1.86633 7.23732e-19 -1.01314)
(-1.46411 0.0760412 -2.44969e-19 -1.54246 2.79009e-19 -0.901972)
(-1.02361 -0.703126 9.15154e-20 -2.32729 2.18021e-19 -1.00527)
(-1.84118 0.228838 3.43859e-19 -2.10474 -5.07869e-19 -1.18378)
(-1.56593 -0.470738 1.53144e-19 -2.04407 1.18169e-19 -1.083)
(-1.65131 -0.657274 4.98432e-19 -2.08082 1.0122e-19 -1.11964)
(-1.51206 -0.183057 3.96067e-19 -1.66373 5.9524e-19 -0.952736)
(-1.53703 -0.186505 -3.78083e-19 -1.67694 -1.9656e-19 -0.964192)
(-0.992024 -0.665272 -4.67328e-19 -2.34727 -4.45895e-19 -1.00179)
(-1.43404 0.326997 0 -1.47302 0 -0.872116)
(-1.38386 -0.461313 -2.50248e-19 -2.03339 -2.17025e-19 -1.02517)
(-1.49221 0.278475 5.10493e-20 -2.20623 8.5872e-20 -1.10953)
(-2.20249 -0.0214475 -8.93752e-21 -1.59659 -1.15318e-19 -1.13972)
(-2.17668 -0.0978698 3.48209e-19 -1.89794 2.07925e-19 -1.22238)
(-1.07574 -0.662621 -9.23706e-19 -2.09784 -4.06609e-19 -0.952072)
(-1.54608 -0.551149 -4.28109e-19 -2.07014 -2.41135e-19 -1.08486)
(-2.03294 -0.550382 4.70808e-19 -1.9191 1.986e-19 -1.18561)
(-1.79874 -0.480286 -1.12328e-19 -1.85866 -2.81504e-19 -1.09722)
(-1.78101 -0.48682 1.48617e-19 -1.86167 6.53507e-20 -1.0928)
(-1.27579 -0.387916 -1.1781e-18 -1.777 -3.27506e-19 -0.915838)
(-1.65113 -0.600916 -1.21462e-19 -1.9529 1.81017e-19 -1.08121)
(-2.41828 0.105015 -8.19894e-19 -1.60244 1.76223e-19 -1.20622)
(-2.14774 0.736464 3.4594e-19 -1.89399 -8.93076e-20 -1.21252)
(-2.12387 -0.334897 -1.47229e-19 -2.06967 -2.75726e-19 -1.25806)
(-2.23331 -0.0453739 2.54455e-19 -1.87903 1.49312e-19 -1.2337)
(-1.24274 -0.725078 -3.51044e-19 -2.20696 -2.95433e-19 -1.03491)
(-1.80985 -0.521562 2.70633e-19 -2.00152 6.20222e-20 -1.14341)
(-1.6291 -0.662486 -4.61111e-19 -2.01952 -2.8198e-19 -1.09459)
(-1.64459 -0.670065 4.46117e-19 -2.02848 2.5677e-20 -1.10192)
(-2.52685 0.234487 5.19277e-19 -1.60502 -1.12218e-19 -1.23956)
(-2.59366 0.455169 -7.15265e-20 -1.47789 -9.81777e-21 -1.22146)
(-2.28735 -0.177683 1.66473e-19 -1.92279 -1.59161e-19 -1.26304)
(-0.899555 -0.495562 3.67589e-19 -1.83161 6.15252e-20 -0.819349)
(-1.30816 -0.615469 7.47432e-19 -2.1624 6.00616e-19 -1.04117)
(-0.852796 -0.215533 -9.52616e-19 -1.58916 -1.32432e-19 -0.732588)
(-2.22816 0.512122 -8.33048e-20 -1.88066 -8.12595e-20 -1.23265)
(-1.18856 -0.725707 -4.0164e-19 -2.35516 -6.78722e-19 -1.06312)
(-2.09137 -0.37476 4.57486e-20 -2.01651 1.3216e-19 -1.23236)
(-2.39875 0.516062 -3.13953e-19 -1.7139 1.59948e-19 -1.2338)
(-2.22669 -0.314683 3.41274e-19 -1.97753 9.78365e-21 -1.26127)
(-0.874182 -0.335301 3.12125e-19 -1.67719 -7.54962e-19 -0.765411)
(-1.24555 -0.697465 -8.69636e-19 -2.2832 -3.70634e-19 -1.05863)
(-2.29399 -0.228885 -2.31069e-20 -1.787 -1.26611e-19 -1.2243)
(-2.14922 -0.448621 1.20774e-18 -1.88673 6.8448e-19 -1.21078)
(-2.05904 -0.468757 0 -1.85894 0 -1.1754)
(-2.07472 -0.524683 2.27627e-19 -1.90908 -2.28647e-19 -1.19514)
(-2.279 -0.155755 -2.14918e-19 -1.80669 -1.6904e-19 -1.22571)
(-2.00256 -0.5156 5.60046e-19 -1.95438 7.14977e-20 -1.18708)
(-2.41972 0.600792 -2.04541e-19 -1.70944 1.89334e-19 -1.23875)
(-2.24639 -0.291996 1.87886e-19 -1.99681 -1.66938e-19 -1.27296)
(-0.796471 -0.315686 5.9297e-19 -1.6282 -7.00328e-20 -0.7274)
(-1.2083 -0.694155 0 -2.28331 0 -1.04748)
(-2.19257 -0.427191 -1.39261e-18 -1.86704 -3.62848e-19 -1.21788)
(-2.2629 -0.139342 -1.40024e-19 -1.91612 2.37723e-19 -1.25371)
(-2.64748 0.415912 -3.64776e-19 -1.45384 5.81495e-20 -1.2304)
(-0.916799 -0.528167 -2.74515e-19 -1.8744 5.89271e-20 -0.837361)
(-1.31637 -0.596138 4.20916e-19 -2.13675 4.36227e-19 -1.03594)
(-1.18595 -0.652456 -7.01933e-19 -2.23938 -3.52213e-19 -1.0276)
(-1.71285 -0.663259 -8.10141e-19 -2.05937 -4.45001e-19 -1.13167)
(-2.20721 -0.0590963 5.73363e-19 -1.8571 3.62493e-19 -1.21929)
(-1.23884 -0.720784 -5.88551e-19 -2.19629 -2.42511e-20 -1.03054)
(-1.81719 -0.523727 7.27197e-19 -2.01044 2.83646e-19 -1.14829)
(-2.27414 1.04511 3.66172e-19 -1.80327 -1.42652e-19 -1.22322)
(-2.24057 -0.235738 -2.26597e-19 -2.11397 -1.21486e-19 -1.30636)
(-0.347723 -0.105036 -2.08959e-18 -1.35565 -4.74443e-19 -0.511011)
(-1.09423 -0.706287 -2.02896e-18 -2.36695 -1.2583e-18 -1.03835)
(-2.21384 -0.386876 6.45463e-19 -1.87889 2.42078e-19 -1.22782)
(-1.55026 -0.669799 1.93791e-19 -2.12002 -2.4336e-19 -1.10108)
(-0.84218 -0.386026 -2.27471e-19 -1.7005 3.42755e-19 -0.762805)
(-0.572069 0.0312474 4.98179e-19 -1.39455 8.76662e-19 -0.589986)
(-1.0968 -0.726139 2.09946e-19 -2.45492 1.16063e-19 -1.06551)
(-1.86677 0.639415 3.78644e-19 -2.06119 -3.14546e-19 -1.17839)
(-1.93085 -0.396897 2.33911e-19 -2.09698 5.86463e-19 -1.20835)
(-1.78242 -0.637185 -4.04041e-19 -1.98703 4.65924e-20 -1.13084)
(-1.90421 -0.36262 -5.72973e-19 -1.78812 -4.47613e-19 -1.1077)
(-2.29348 0.106825 -2.85749e-19 -1.80443 -5.29804e-20 -1.22937)
(-2.29984 0.0868262 3.02288e-19 -1.8183 1.05296e-19 -1.23544)
(-2.06261 -0.447668 -7.95036e-19 -1.95755 -5.68263e-19 -1.20605)
(-2.0484 -0.450548 -8.93537e-19 -1.95887 -7.58399e-19 -1.20218)
(-2.2362 -0.147132 5.83452e-19 -1.88084 2.33746e-19 -1.23511)
(-1.19366 -0.686677 2.04856e-19 -2.11771 2.92989e-19 -0.99341)
(-1.64801 -0.567535 4.22809e-19 -2.04803 2.00426e-19 -1.10881)
(-1.90095 -0.371116 7.41694e-19 -1.78538 -4.70119e-19 -1.1059)
(-1.82939 0.784248 9.87558e-19 -2.08396 -7.01205e-19 -1.17401)
(-1.97778 -0.368252 2.81474e-19 -2.14119 1.89434e-20 -1.23569)
(-0.316902 0.080159 -1.59012e-19 -1.2458 -7.49972e-20 -0.46881)
(-1.08845 -0.726198 1.57212e-18 -2.48127 8.92823e-19 -1.07092)
(-1.74279 -0.537152 5.27845e-19 -2.02983 4.4712e-20 -1.13179)
(-3.04414 1.45015 6.95834e-19 -1.14523 8.39182e-20 -1.25681)
(-2.25785 0.0526052 -5.82593e-20 -2.00042 -2.74011e-19 -1.27748)
(-1.01573 -0.584866 3.18563e-19 -2.1732 3.36647e-19 -0.95668)
(-2.357 -0.0258808 -8.34582e-20 -1.64747 1.33958e-19 -1.20134)
(-0.823362 -0.377219 -6.29112e-19 -1.68677 3.51102e-19 -0.753039)
(-0.5564 0.402447 2.51308e-19 -1.22551 8.14713e-19 -0.534574)
(-1.06236 -0.677086 -1.89053e-18 -2.50537 -1.50679e-18 -1.07032)
(-1.43542 0.54177 1.59545e-19 -2.29916 -2.71061e-19 -1.12037)
(-1.57571 -0.454358 -3.82264e-19 -2.08004 -6.19174e-19 -1.09672)
(-2.04512 -0.53356 -8.88916e-20 -1.90013 1.52143e-19 -1.18358)
(-2.70859 0.842257 5.04399e-19 -1.38348 -9.49261e-20 -1.22762)
(-2.31377 -0.118464 -7.83427e-19 -1.98125 -4.52878e-19 -1.28851)
(-0.730868 -0.390072 -1.12968e-18 -1.68708 -3.06996e-19 -0.725385)
(-1.164 -0.618743 8.17942e-19 -2.18928 6.35406e-19 -1.00598)
(-1.53754 -0.50023 5.50034e-19 -1.86596 2.70341e-19 -1.02105)
(-2.09903 -0.268089 1.14723e-18 -1.73789 -7.49881e-21 -1.15108)
(-2.39987 0.490808 1.65175e-19 -1.69898 -1.08287e-19 -1.22966)
(-2.23811 -0.313833 1.39354e-19 -1.98152 3.18977e-19 -1.26589)
(-1.23858 -0.694737 0 -2.2703 0 -1.05267)
(-1.59381 -0.373351 6.96291e-19 -1.78629 -2.9864e-19 -1.01403)
(-0.614811 0.393871 6.73705e-19 -1.2184 -3.41768e-19 -0.549965)
(-1.06236 -0.67842 6.99117e-19 -2.49612 1.2096e-19 -1.06754)
(-1.50983 0.522038 -1.44742e-21 -2.31221 -1.3987e-21 -1.14661)
(-1.56732 -0.4542 4.79673e-19 -2.07831 6.11812e-19 -1.09369)
(-2.19945 -0.073498 -1.37804e-19 -1.87755 -9.45472e-20 -1.2231)
(-1.20288 -0.710464 -6.24745e-19 -2.18191 -3.08108e-19 -1.01544)
(-0.882112 0.245332 -2.36499e-19 -1.36879 -7.77704e-19 -0.675271)
(-1.04241 -0.695185 6.68653e-19 -2.44618 6.35416e-19 -1.04658)
(-1.64204 0.432967 2.1774e-20 -2.23914 -2.52381e-19 -1.16435)
(-1.59377 -0.452549 0 -2.06622 0 -1.098)
(-2.62987 0.612329 7.25338e-20 -1.55397 -2.98237e-20 -1.25515)
(-2.30477 -0.202902 1.35617e-20 -1.95015 4.26931e-19 -1.27648)
(-0.813676 -0.410898 0 -1.716 0 -0.758904)
(-1.24345 -0.64716 2.77247e-20 -2.20844 -2.22687e-19 -1.03557)
(-2.27499 -0.222168 6.52856e-20 -1.79401 3.16559e-19 -1.2207)
(-2.08055 -0.496832 -6.11096e-19 -1.92156 -6.5956e-21 -1.20063)
(-2.17026 -0.445102 -1.18514e-19 -1.89348 2.74897e-21 -1.21912)
(-2.17951 -0.427605 -1.92446e-19 -1.87052 -2.62746e-19 -1.21501)
(-2.20162 -0.0803872 9.69919e-20 -1.86672 1.57547e-19 -1.2205)
(-1.21657 -0.7125 -7.38456e-19 -2.18037 -5.50756e-19 -1.01908)
(-1.7638 -0.536505 -1.29006e-19 -2.02655 3.05963e-20 -1.13711)
(-1.78856 -0.621633 -8.4573e-19 -1.96536 -7.19791e-19 -1.12618)
(-1.76134 -0.622322 1.12586e-18 -1.96546 2.51149e-19 -1.11804)
(-0.0127473 0.254952 -5.99025e-20 -1.05049 1.42863e-18 -0.31897)
(-1.09204 -0.720369 3.59726e-19 -2.54355 4.50232e-19 -1.09068)
(-1.68548 0.86992 -1.8683e-18 -2.22837 1.36078e-18 -1.17415)
(-1.89282 -0.387015 -1.53476e-19 -2.16649 -3.61664e-19 -1.21779)
(-2.47732 0.236125 5.8936e-19 -1.57222 -2.07801e-20 -1.21486)
(-2.26463 -0.23623 5.12695e-20 -1.77136 2.23303e-19 -1.2108)
(-2.41455 0.150938 4.77447e-19 -1.50237 -2.26697e-19 -1.17508)
(-2.16267 -0.084835 -5.69476e-19 -1.92151 -2.63411e-19 -1.22525)
(-0.988112 -0.626574 2.12101e-19 -2.03088 -1.82725e-19 -0.905698)
(-1.40984 -0.547417 -3.22246e-20 -2.08016 2.62285e-19 -1.047)
(-2.14885 -0.466387 -4.06061e-19 -1.88408 7.31763e-20 -1.20988)
(-2.22831 -0.175474 -8.13047e-19 -1.70446 -1.10307e-19 -1.17983)
(-1.15284 -0.734215 -5.30853e-19 -2.32669 -4.52969e-19 -1.04386)
(-2.11456 0.233352 1.90687e-20 -1.95031 -1.13803e-19 -1.21946)
(-1.86064 -0.457262 -2.26991e-20 -2.01715 -5.68063e-20 -1.16334)
(-2.08334 -0.516342 3.93811e-19 -1.89584 -2.58115e-19 -1.19375)
(-2.26306 -0.244792 -1.02583e-18 -1.77887 1.1724e-20 -1.21258)
(-2.62995 1.37419 -1.67726e-18 -1.5094 4.19193e-19 -1.24181)
(-2.33376 -0.0720191 -4.10283e-19 -2.10354 5.84185e-19 -1.33119)
(-1.0295 -0.654233 -4.34062e-19 -2.26974 -4.04659e-19 -0.989774)
(-0.398894 -0.181458 9.65764e-19 -1.41168 -2.66999e-19 -0.543172)
(-0.323832 0.113962 1.67349e-19 -1.25584 1.94959e-19 -0.473902)
(-1.09114 -0.725282 2.71052e-19 -2.49156 1.54897e-20 -1.07481)
(-1.80827 0.763486 -5.40998e-19 -2.11818 3.25973e-19 -1.17793)
(-1.93832 -0.383916 -5.40158e-19 -2.1289 -5.39805e-19 -1.22017)
(-1.82231 -0.576451 -1.54681e-18 -2.00282 -8.66723e-19 -1.14754)
(-2.2769 -0.144609 8.53203e-20 -1.69183 -7.54426e-20 -1.19062)
(-2.36441 0.0215223 -6.51164e-19 -1.6155 1.74474e-19 -1.19397)
(-2.05644 -0.521934 5.89475e-19 -1.89764 -7.38145e-21 -1.18623)
(-2.36811 0.0440081 3.17251e-19 -1.73622 -6.31005e-19 -1.2313)
(-2.17966 -0.408316 -4.60922e-19 -1.92127 -1.7908e-19 -1.23028)
(-1.40016 -0.698589 -1.3063e-19 -2.18359 -7.93767e-22 -1.07513)
(-2.00711 0.803743 -2.37176e-19 -1.96725 2.32658e-19 -1.19231)
(-1.99451 0.761997 -6.66902e-19 -1.97652 3.01675e-19 -1.19131)
(-2.06328 -0.348658 3.76971e-19 -2.11431 2.15093e-19 -1.25328)
(-2.07694 -0.342391 -6.34891e-19 -2.10773 -2.01148e-19 -1.2554)
(-2.24861 -0.339673 7.69416e-19 -1.84688 6.54034e-19 -1.22865)
(-2.15704 -0.133579 3.86247e-19 -1.6663 2.12489e-19 -1.147)
(-2.24478 -0.34673 3.14516e-19 -1.85978 2.00266e-19 -1.23137)
(-2.9004 0.932854 -1.33623e-18 -1.27774 2.44428e-19 -1.25344)
(-2.26186 -0.0445166 6.21472e-19 -1.95351 4.41992e-19 -1.26461)
(-0.748824 -0.413675 1.89928e-19 -1.7235 -2.90551e-19 -0.741696)
(-1.14531 -0.587622 0 -2.16062 0 -0.99178)
(-1.37405 -0.68153 0 -2.19298 0 -1.07011)
(-1.61992 -0.657388 -9.62021e-20 -2.08636 -1.69271e-19 -1.11188)
(-1.61152 -0.661572 7.90163e-19 -2.09386 7.07424e-20 -1.11162)
(-1.8846 -0.616724 4.6705e-19 -1.98328 1.73477e-19 -1.16036)
(-2.26474 -0.257607 4.08216e-19 -1.87377 2.97151e-19 -1.24155)
(-2.26932 -0.252786 1.24863e-19 -1.88037 5.56516e-20 -1.24491)
(-1.15754 -0.606131 0 -1.97749 0 -0.940507)
(-1.15052 -0.61533 0 -1.98504 0 -0.940668)
(-1.50984 -0.624447 8.71984e-21 -2.11218 2.02231e-19 -1.08661)
(-1.50085 -0.613954 4.25496e-19 -2.10345 5.75038e-20 -1.08129)
(-2.23235 -0.331979 4.48492e-19 -1.83632 2.49969e-19 -1.2206)
(-2.18663 0.246261 -7.42553e-19 -1.85189 7.10037e-20 -1.21155)
(-2.01047 -0.434271 -1.1244e-18 -1.99932 -4.46782e-19 -1.20294)
(-1.21662 -0.729544 5.87123e-19 -2.29867 5.45e-19 -1.05459)
(-0.715879 -0.295303 -2.46375e-19 -1.59893 -2.08898e-18 -0.694442)
(-0.941056 -0.552516 -1.38509e-18 -2.14219 -1.15557e-18 -0.924974)
(-2.16797 0.151614 0 -1.9551 0 -1.23692)
(-3.3773 1.75911 0 -0.925024 0 -1.2907)
(-0.586714 0.53883 -4.45108e-20 -1.17331 1.5435e-18 -0.528008)
(-1.06821 -0.649888 8.63696e-19 -2.50696 8.85331e-19 -1.07255)
(-1.38037 0.524158 -5.94939e-19 -2.36679 9.26723e-19 -1.12415)
(-1.47897 -0.46678 0 -2.05934 0 -1.06149)
(-2.25809 -0.214421 -7.84931e-19 -1.81988 -3.48518e-19 -1.22339)
(-1.61139 -0.608901 2.10582e-19 -1.95619 3.6958e-19 -1.07027)
(-2.28766 -0.235037 -2.64224e-19 -1.80186 -1.8009e-19 -1.22686)
(-2.06798 -0.50093 4.20327e-19 -1.92339 1.87976e-19 -1.19741)
(-1.59049 -0.693952 2.20417e-19 -2.07872 3.50311e-19 -1.10076)
(-2.19752 -0.418472 6.55342e-19 -1.88247 5.02171e-19 -1.224)
(-2.18038 -0.424032 1.09104e-18 -1.87479 5.04004e-19 -1.21655)
(-2.84439 0.628499 1.76435e-18 -1.26823 -5.93944e-19 -1.23379)
(-2.13841 -0.0224409 2.50577e-19 -1.93093 1.09319e-19 -1.2208)
(-0.861329 -0.52273 -9.25638e-19 -1.88027 -3.59555e-19 -0.822479)
(-1.21262 -0.546725 1.55424e-19 -2.11397 2.18736e-19 -0.997978)
(-1.91079 -0.574035 -8.58182e-19 -1.97627 -4.091e-19 -1.16612)
(-2.61111 0.741508 -2.26573e-20 -1.44194 4.25509e-21 -1.21591)
(-2.31534 -0.16191 -3.30354e-19 -1.97292 1.69991e-19 -1.28648)
(-0.759988 -0.39297 -1.63368e-19 -1.70189 -5.44355e-19 -0.738563)
(-1.20995 -0.635634 8.21393e-19 -2.20977 5.03456e-19 -1.02592)
(-2.2282 0.263208 -3.85717e-19 -1.88149 -6.57038e-20 -1.23291)
(-2.0042 -0.433937 1.0836e-18 -1.99173 1.03161e-19 -1.19878)
(-1.22331 -0.732409 -2.3172e-19 -2.31193 -5.18118e-19 -1.06057)
(-0.808572 -0.36895 -3.08405e-19 -1.68702 -2.87716e-19 -0.748677)
(-1.0983 -0.548937 1.03901e-18 -1.89443 3.04643e-19 -0.897817)
(-2.3969 0.357008 1.9768e-19 -1.70372 7.56124e-22 -1.23019)
(-2.38567 0.379475 -2.537e-19 -1.70838 -2.2239e-21 -1.22821)
(-2.22411 -0.339953 -5.67948e-19 -1.95796 -2.69538e-19 -1.25462)
(-2.21304 -0.343336 0 -1.95591 0 -1.25069)
(-1.28122 -0.695905 -5.25777e-19 -2.245 -4.66378e-19 -1.05787)
(-1.29095 -0.699602 6.41055e-19 -2.26164 4.2986e-19 -1.06578)
(-1.59248 -0.690506 2.78819e-19 -2.09033 -2.95697e-19 -1.10484)
(-2.02627 0.436038 -9.10948e-19 -1.60794 -1.06425e-18 -1.09027)
(-1.39644 -0.44124 1.00115e-18 -1.82091 -1.33896e-19 -0.965205)
(-2.37461 -0.000605789 -7.90324e-19 -1.62111 -4.79178e-20 -1.19872)
(-2.03681 -0.487088 -4.49717e-19 -1.86366 -2.48835e-19 -1.17014)
(-0.961375 -0.501482 1.78616e-19 -1.79357 3.93681e-19 -0.826485)
(-0.933938 -0.471201 5.4044e-19 -2.03269 5.9332e-19 -0.88999)
(-1.67029 0.105276 5.25775e-19 -1.72521 -5.70823e-19 -1.01865)
(-1.59325 -0.356635 -2.74652e-19 -1.77737 -3.01249e-19 -1.01118)
(-0.093724 0.242113 -1.18194e-18 -1.06681 -9.1712e-20 -0.348162)
(-1.08754 -0.719001 -1.00008e-18 -2.53607 -7.96362e-19 -1.08709)
(-1.64766 0.827713 -4.36129e-19 -2.21382 3.21052e-19 -1.15844)
(-1.88134 -0.390204 6.43784e-20 -2.17198 2.73067e-19 -1.21599)
(-1.48198 -0.583159 -5.79897e-19 -1.93899 -7.10337e-20 -1.02629)
(-0.444898 -0.0271635 0 -1.34313 0 -0.536409)
(-1.10119 -0.726473 -4.04377e-19 -2.43442 -4.29304e-19 -1.06068)
(-1.10996 -0.726033 2.15652e-19 -2.43581 1.3449e-19 -1.06373)
(-0.419813 -0.0231584 -5.09155e-19 -1.36197 1.57893e-19 -0.534535)
(-1.71529 -0.66672 -3.6675e-19 -2.05608 -1.07483e-19 -1.13141)
(-1.69437 -0.666946 7.32676e-19 -2.0526 3.09202e-19 -1.12409)
(-1.47586 -0.708695 6.47199e-19 -2.1431 1.53099e-19 -1.08569)
(-1.47443 -0.713042 4.55867e-19 -2.15349 3.97827e-19 -1.08838)
(-1.79312 -0.498825 2.54931e-20 -1.86832 1.75129e-19 -1.09843)
(-2.1466 -0.386909 -2.73225e-19 -1.82331 -3.581e-19 -1.19097)
(-2.16094 -0.397924 8.86099e-19 -1.82606 -2.20111e-19 -1.1961)
(-1.41953 -0.448381 7.48932e-19 -1.82119 5.84921e-19 -0.972216)
(-0.948026 -0.646183 8.91965e-19 -2.16475 6.95899e-19 -0.933834)
(-1.30694 -0.481152 -2.65315e-19 -2.04668 -3.28482e-19 -1.00609)
(-1.75301 0.105001 3.23577e-19 -2.06285 -3.7294e-19 -1.14476)
(-1.83689 0.504508 -9.23006e-20 -1.55413 -1.1609e-18 -1.0173)
(-1.12443 -0.484716 -5.8829e-19 -1.83628 6.53267e-19 -0.888212)
(-2.47826 0.115333 -7.54773e-19 -1.60395 2.30885e-19 -1.22466)
(-1.66048 -0.59125 0 -1.9383 0 -1.07963)
(-1.78482 -0.575705 6.80376e-19 -1.92697 2.19885e-19 -1.11354)
(-1.7657 -0.580398 -5.24292e-19 -1.92877 -2.00904e-19 -1.10834)
(-1.62533 -0.655948 -4.3942e-19 -2.07762 -4.78778e-19 -1.11089)
(-1.29692 -0.463591 -1.25385e-19 -1.82958 -4.28689e-19 -0.937949)
(-1.31237 -0.475867 -3.42309e-19 -1.83505 2.14354e-19 -0.944226)
(-1.80093 -0.469193 -1.13515e-18 -1.84895 -1.55279e-19 -1.09496)
(-1.71021 -0.624016 7.42187e-19 -1.9705 2.55883e-19 -1.10421)
(-1.7029 -0.617056 -2.38825e-19 -1.9657 1.43576e-20 -1.10058)
(-1.91193 -0.09467 1.61772e-19 -1.63346 4.58651e-20 -1.06362)
(-2.0888 0.0218752 -2.31251e-19 -1.94897 2.13586e-19 -1.21133)
(-1.07541 -0.702874 2.35163e-19 -2.20171 6.81212e-19 -0.983137)
(-1.60806 -0.50935 -6.50795e-19 -2.04202 -6.59602e-20 -1.09502)
(-1.62821 -0.259042 -1.93774e-19 -1.7239 4.65263e-20 -1.00563)
(-1.61626 -0.263201 6.9532e-19 -1.71839 -4.76939e-19 -1.0004)
(-2.14201 -0.472006 8.65264e-19 -1.89969 2.46136e-19 -1.21251)
(-1.71724 -0.665801 1.06695e-18 -2.03391 5.48279e-19 -1.12535)
(-2.25902 -0.121657 3.33849e-19 -1.68157 -2.15059e-19 -1.18218)
(-2.30226 -0.0268865 0 -1.76988 0 -1.22164)
(-2.33471 -0.0454411 0 -1.79114 0 -1.23775)
(-2.08313 -0.461838 3.1818e-19 -1.92507 4.84292e-20 -1.20246)
(-2.10057 -0.458596 2.29352e-19 -1.94128 2.65201e-19 -1.21255)
(-1.86569 0.955238 -9.12848e-20 -2.04763 4.89185e-20 -1.174)
(-2.06382 -0.330136 -6.82411e-20 -2.16984 3.52802e-19 -1.2701)
(-2.19658 -0.379006 0 -1.82815 0 -1.20742)
(-2.51358 0.620771 3.74366e-19 -1.59577 -1.11657e-19 -1.2328)
(-2.29184 -0.244291 1.82841e-20 -1.96997 2.01086e-19 -1.27854)
(-1.23868 -0.670518 -4.65266e-19 -2.24396 -3.84441e-19 -1.04479)
(-0.596659 0.20364 -3.97393e-19 -1.33243 9.20197e-19 -0.578728)
(-1.06676 -0.70934 -3.20794e-19 -2.48574 -4.13337e-19 -1.06575)
(-1.66879 0.563208 -2.72902e-19 -2.20399 3.27852e-19 -1.16183)
(-1.73453 -0.435031 -4.21282e-19 -2.09266 -2.86712e-19 -1.14816)
(-2.26691 -0.262559 -1.13253e-19 -1.85271 -3.91191e-19 -1.23589)
(-1.76088 -0.588311 -4.73768e-19 -2.01617 -2.9067e-20 -1.13311)
(-0.820422 -0.0894192 7.48075e-19 -1.50332 5.1592e-19 -0.697121)
(-2.01261 0.504761 -2.449e-19 -1.99312 -2.91947e-20 -1.20172)
(-1.11904 -0.73079 -1.41773e-18 -2.40476 -8.59695e-19 -1.05714)
(-1.95202 -0.40459 -4.87675e-19 -2.06081 -2.86128e-19 -1.20385)
(-2.40332 0.0417872 -6.83421e-19 -1.60114 8.90657e-20 -1.20134)
(-2.37096 0.0276005 4.44384e-21 -1.60881 -2.04988e-19 -1.19393)
(-2.28612 -0.237019 -2.11039e-19 -1.7734 -1.36227e-19 -1.21786)
(-2.2618 -0.224208 -3.52657e-19 -1.76154 4.18731e-21 -1.207)
(-2.54268 0.479632 3.35084e-19 -1.51348 -2.15114e-20 -1.21685)
(-2.3008 -0.21611 8.34384e-20 -1.93489 2.35265e-19 -1.27071)
(-0.896408 -0.460372 -4.3006e-19 -1.79341 -3.86835e-19 -0.806947)
(-1.29602 -0.63891 1.46134e-19 -2.18806 -2.19173e-19 -1.04522)
(-2.27796 -0.0615041 5.99723e-20 -1.80374 -3.78259e-19 -1.22451)
(-2.01437 -0.493706 -5.56894e-19 -1.95856 -1.91237e-19 -1.19188)
(-1.37993 -0.721259 -2.43934e-19 -2.19555 -4.0393e-19 -1.07264)
(-1.61683 -0.60435 3.68398e-19 -1.95695 -8.39184e-20 -1.07213)
(-2.10115 -0.492222 8.758e-19 -1.89498 3.25182e-19 -1.19884)
(-1.51471 -0.43716 -3.42641e-19 -1.82658 -3.75048e-19 -1.00239)
(-1.4961 -0.432076 -5.79682e-19 -1.8147 -4.79865e-19 -0.993241)
(-2.2563 0.0707321 3.94489e-19 -1.54647 -2.22396e-19 -1.14083)
(-2.12915 -0.0417741 -4.20919e-19 -1.93674 -3.1152e-19 -1.21977)
(-1.01993 -0.654377 -9.85013e-19 -2.0975 -5.31944e-19 -0.935229)
(-1.47965 -0.536301 -1.22542e-20 -2.07248 5.65358e-20 -1.06564)
(-1.26151 -0.389076 9.18299e-22 -1.76613 4.09981e-19 -0.908292)
(-2.56394 1.17763 1.03862e-19 -1.44352 5.26971e-20 -1.20224)
(-2.58927 1.13503 1.09898e-19 -1.49066 1.12024e-19 -1.22398)
(-2.3359 -0.106887 -1.4678e-19 -2.06491 7.32235e-19 -1.32024)
(-2.33535 -0.121024 1.6673e-19 -2.0708 -4.90735e-20 -1.32184)
(-0.519993 -0.246037 6.92611e-19 -1.5156 3.91676e-19 -0.610679)
(-0.515417 -0.246463 -1.31893e-19 -1.49499 -4.02714e-19 -0.603124)
(-1.0866 -0.649517 1.49464e-18 -2.25522 1.16067e-18 -1.00255)
(-1.07744 -0.656348 0 -2.25777 0 -1.00056)
(-1.71436 -0.670458 0 -2.04154 0 -1.12677)
(-1.78941 -0.434326 2.37199e-19 -1.82468 1.40848e-19 -1.08423)
(-2.14438 -0.467932 -1.51756e-20 -1.87437 4.21627e-19 -1.20563)
(-2.02035 -0.52503 -5.15653e-19 -1.88931 2.01532e-19 -1.1729)
(-2.68573 0.707919 -2.08643e-18 -1.48633 5.49312e-19 -1.25162)
(-2.31273 -0.165566 -3.21195e-19 -1.95792 -3.35633e-19 -1.2812)
(-0.772757 -0.402773 -1.22276e-18 -1.7028 -8.87497e-19 -0.742668)
(-1.21456 -0.636043 3.78388e-19 -2.20105 3.72165e-19 -1.02468)
(-1.94043 -0.522393 5.17783e-19 -1.89002 4.15036e-19 -1.14913)