/*--------------------------------*- C++ -*----------------------------------*\
| =========                 |                                                 |
| \\      /  F ield         | OpenFOAM: The Open Source CFD Toolbox           |
|  \\    /   O peration     | Version:  2312                                  |
|   \\  /    A nd           | Website:  www.openfoam.com                      |
|    \\/     M anipulation  |                                                 |
\*---------------------------------------------------------------------------*/
FoamFile
{
    version     2.0;
    format      ascii;
    arch        "LSB;label=32;scalar=64";
    class       volVectorField;
    location    "90";
    object      D;
}
// * * * * * * * * * * * * * * * * * * * * * * * * * * * * * * * * * * * * * //

dimensions      [0 1 0 0 0 0 0];

internalField   nonuniform List<vector> 
12870
(
(4.6051 0.0328809 0)
(4.60416 0.0986359 0)
(4.60228 0.164371 0)
(4.59946 0.230072 0)
(4.59571 0.295727 0)
(4.59102 0.361321 0)
(4.58539 0.426842 0)
(4.57883 0.492275 0)
(4.57133 0.557608 0)
(4.5629 0.622828 0)
(4.55355 0.68792 0)
(4.54326 0.752872 0)
(4.53204 0.817671 0)
(4.51991 0.882303 0)
(4.50685 0.946755 0)
(4.49287 1.01101 0)
(4.47797 1.07507 0)
(4.46217 1.1389 0)
(4.44545 1.2025 0)
(4.42782 1.26586 0)
(4.4093 1.32896 0)
(4.38987 1.39178 0)
(4.36955 1.45433 0)
(4.34834 1.51657 0)
(4.32624 1.57851 0)
(4.30325 1.64012 0)
(4.2794 1.70141 0)
(4.25466 1.76234 0)
(4.22907 1.82291 0)
(4.2026 1.88312 0)
(4.17529 1.94294 0)
(4.14712 2.00236 0)
(4.1181 2.06137 0)
(4.08824 2.11997 0)
(4.05756 2.17813 0)
(4.02604 2.23585 0)
(3.9937 2.29311 0)
(3.96055 2.3499 0)
(3.92659 2.40622 0)
(3.89183 2.46204 0)
(3.85628 2.51737 0)
(3.81994 2.57217 0)
(3.78282 2.62646 0)
(3.74493 2.68021 0)
(3.70628 2.73341 0)
(3.66687 2.78605 0)
(3.62671 2.83813 0)
(3.58581 2.88963 0)
(3.54418 2.94054 0)
(3.50183 2.99085 0)
(3.45877 3.04055 0)
(3.415 3.08963 0)
(3.37053 3.13808 0)
(3.32538 3.18589 0)
(3.27955 3.23305 0)
(3.23305 3.27955 0)
(3.18589 3.32538 0)
(3.13808 3.37053 0)
(3.08963 3.415 0)
(3.04055 3.45877 0)
(2.99085 3.50183 0)
(2.94054 3.54418 0)
(2.88963 3.58581 0)
(2.83813 3.62671 0)
(2.78605 3.66687 0)
(2.73341 3.70628 0)
(2.68021 3.74493 0)
(2.62646 3.78282 0)
(2.57217 3.81994 0)
(2.51737 3.85628 0)
(2.46204 3.89183 0)
(2.40622 3.92659 0)
(2.3499 3.96055 0)
(2.29311 3.9937 0)
(2.23585 4.02604 0)
(2.17813 4.05756 0)
(2.11997 4.08824 0)
(2.06137 4.1181 0)
(2.00236 4.14712 0)
(1.94294 4.17529 0)
(1.88312 4.2026 0)
(1.82291 4.22907 0)
(1.76234 4.25466 0)
(1.70141 4.2794 0)
(1.64012 4.30325 0)
(1.57851 4.32624 0)
(1.51657 4.34834 0)
(1.45433 4.36955 0)
(1.39178 4.38987 0)
(1.32896 4.4093 0)
(1.26586 4.42782 0)
(1.2025 4.44545 0)
(1.1389 4.46217 0)
(1.07507 4.47797 0)
(1.01101 4.49287 0)
(0.946755 4.50685 0)
(0.882303 4.51991 0)
(0.817671 4.53204 0)
(0.752872 4.54326 0)
(0.68792 4.55355 0)
(0.622828 4.5629 0)
(0.557608 4.57133 0)
(0.492275 4.57883 0)
(0.426842 4.58539 0)
(0.361321 4.59102 0)
(0.295727 4.59571 0)
(0.230072 4.59946 0)
(0.164371 4.60228 0)
(0.0986359 4.60416 0)
(0.0328809 4.6051 0)
(4.58273 0.0327212 0)
(4.58179 0.0981568 0)
(4.57993 0.163572 0)
(4.57712 0.228955 0)
(4.57339 0.29429 0)
(4.56872 0.359566 0)
(4.56312 0.424768 0)
(4.55659 0.489884 0)
(4.54913 0.5549 0)
(4.54074 0.619802 0)
(4.53143 0.684578 0)
(4.52119 0.749215 0)
(4.51003 0.813699 0)
(4.49795 0.878017 0)
(4.48495 0.942156 0)
(4.47104 1.0061 0)
(4.45622 1.06984 0)
(4.44049 1.13337 0)
(4.42385 1.19666 0)
(4.40631 1.25971 0)
(4.38788 1.3225 0)
(4.36855 1.38502 0)
(4.34832 1.44726 0)
(4.32721 1.5092 0)
(4.30522 1.57084 0)
(4.28235 1.63216 0)
(4.25861 1.69314 0)
(4.234 1.75378 0)
(4.20852 1.81406 0)
(4.18219 1.87397 0)
(4.155 1.9335 0)
(4.12697 1.99263 0)
(4.0981 2.05136 0)
(4.06839 2.10967 0)
(4.03785 2.16755 0)
(4.00648 2.22499 0)
(3.9743 2.28197 0)
(3.94131 2.33849 0)
(3.90752 2.39453 0)
(3.87293 2.45008 0)
(3.83755 2.50514 0)
(3.80138 2.55968 0)
(3.76444 2.6137 0)
(3.72674 2.66719 0)
(3.68827 2.72013 0)
(3.64905 2.77252 0)
(3.60909 2.82435 0)
(3.56839 2.87559 0)
(3.52697 2.92625 0)
(3.48482 2.97632 0)
(3.44197 3.02578 0)
(3.39841 3.07462 0)
(3.35416 3.12283 0)
(3.30922 3.17041 0)
(3.26362 3.21734 0)
(3.21734 3.26362 0)
(3.17041 3.30922 0)
(3.12283 3.35416 0)
(3.07462 3.39841 0)
(3.02578 3.44197 0)
(2.97632 3.48482 0)
(2.92625 3.52697 0)
(2.87559 3.56839 0)
(2.82435 3.60909 0)
(2.77252 3.64905 0)
(2.72013 3.68827 0)
(2.66719 3.72674 0)
(2.6137 3.76444 0)
(2.55968 3.80138 0)
(2.50514 3.83755 0)
(2.45008 3.87293 0)
(2.39453 3.90752 0)
(2.33849 3.94131 0)
(2.28197 3.9743 0)
(2.22499 4.00648 0)
(2.16755 4.03785 0)
(2.10967 4.06839 0)
(2.05136 4.0981 0)
(1.99263 4.12697 0)
(1.9335 4.155 0)
(1.87397 4.18219 0)
(1.81406 4.20852 0)
(1.75378 4.234 0)
(1.69314 4.25861 0)
(1.63216 4.28235 0)
(1.57084 4.30522 0)
(1.5092 4.32721 0)
(1.44726 4.34832 0)
(1.38502 4.36855 0)
(1.3225 4.38788 0)
(1.25971 4.40631 0)
(1.19666 4.42385 0)
(1.13337 4.44049 0)
(1.06984 4.45622 0)
(1.0061 4.47104 0)
(0.942156 4.48495 0)
(0.878017 4.49795 0)
(0.813699 4.51003 0)
(0.749215 4.52119 0)
(0.684578 4.53143 0)
(0.619802 4.54074 0)
(0.5549 4.54913 0)
(0.489884 4.55659 0)
(0.424768 4.56312 0)
(0.359566 4.56872 0)
(0.29429 4.57339 0)
(0.228955 4.57712 0)
(0.163572 4.57993 0)
(0.0981568 4.58179 0)
(0.0327212 4.58273 0)
(4.561 0.032566 0)
(4.56007 0.0976915 0)
(4.55821 0.162797 0)
(4.55542 0.227869 0)
(4.5517 0.292895 0)
(4.54706 0.357861 0)
(4.54148 0.422754 0)
(4.53498 0.487561 0)
(4.52756 0.552269 0)
(4.51921 0.616864 0)
(4.50994 0.681333 0)
(4.49975 0.745663 0)
(4.48865 0.809841 0)
(4.47663 0.873854 0)
(4.46369 0.937689 0)
(4.44985 1.00133 0)
(4.43509 1.06477 0)
(4.41944 1.12799 0)
(4.40288 1.19099 0)
(4.38542 1.25374 0)
(4.36707 1.31623 0)
(4.34783 1.37845 0)
(4.32771 1.4404 0)
(4.3067 1.50205 0)
(4.28481 1.56339 0)
(4.26205 1.62442 0)
(4.23842 1.68511 0)
(4.21392 1.74546 0)
(4.18857 1.80546 0)
(4.16236 1.86509 0)
(4.1353 1.92433 0)
(4.1074 1.98319 0)
(4.07867 2.04163 0)
(4.0491 2.09967 0)
(4.0187 2.15727 0)
(3.98749 2.21444 0)
(3.95546 2.27115 0)
(3.92263 2.3274 0)
(3.88899 2.38318 0)
(3.85457 2.43847 0)
(3.81935 2.49326 0)
(3.78336 2.54754 0)
(3.7466 2.60131 0)
(3.70907 2.65454 0)
(3.67079 2.70724 0)
(3.63175 2.75938 0)
(3.59198 2.81096 0)
(3.55148 2.86196 0)
(3.51025 2.91238 0)
(3.4683 2.96221 0)
(3.42565 3.01143 0)
(3.3823 3.06004 0)
(3.33826 3.10803 0)
(3.29354 3.15538 0)
(3.24814 3.20209 0)
(3.20209 3.24814 0)
(3.15538 3.29354 0)
(3.10803 3.33826 0)
(3.06004 3.3823 0)
(3.01143 3.42565 0)
(2.96221 3.4683 0)
(2.91238 3.51025 0)
(2.86196 3.55148 0)
(2.81096 3.59198 0)
(2.75938 3.63175 0)
(2.70724 3.67079 0)
(2.65454 3.70907 0)
(2.60131 3.7466 0)
(2.54754 3.78336 0)
(2.49326 3.81935 0)
(2.43847 3.85457 0)
(2.38318 3.88899 0)
(2.3274 3.92263 0)
(2.27115 3.95546 0)
(2.21444 3.98749 0)
(2.15727 4.0187 0)
(2.09967 4.0491 0)
(2.04164 4.07867 0)
(1.98319 4.1074 0)
(1.92433 4.1353 0)
(1.86509 4.16236 0)
(1.80546 4.18857 0)
(1.74546 4.21392 0)
(1.68511 4.23842 0)
(1.62442 4.26205 0)
(1.56339 4.28481 0)
(1.50205 4.3067 0)
(1.4404 4.32771 0)
(1.37845 4.34783 0)
(1.31623 4.36707 0)
(1.25374 4.38542 0)
(1.19099 4.40288 0)
(1.12799 4.41944 0)
(1.06477 4.43509 0)
(1.00133 4.44985 0)
(0.937689 4.46369 0)
(0.873854 4.47663 0)
(0.809841 4.48865 0)
(0.745663 4.49975 0)
(0.681333 4.50994 0)
(0.616864 4.51921 0)
(0.552269 4.52756 0)
(0.487561 4.53498 0)
(0.422754 4.54148 0)
(0.357861 4.54706 0)
(0.292895 4.5517 0)
(0.227869 4.55542 0)
(0.162797 4.55821 0)
(0.0976915 4.56007 0)
(0.032566 4.561 0)
(4.53953 0.0324127 0)
(4.5386 0.0972315 0)
(4.53675 0.16203 0)
(4.53397 0.226796 0)
(4.53027 0.291516 0)
(4.52565 0.356176 0)
(4.5201 0.420764 0)
(4.51363 0.485266 0)
(4.50624 0.549669 0)
(4.49793 0.613959 0)
(4.48871 0.678125 0)
(4.47857 0.742152 0)
(4.46751 0.806028 0)
(4.45555 0.86974 0)
(4.44267 0.933274 0)
(4.42889 0.996618 0)
(4.41421 1.05976 0)
(4.39863 1.12268 0)
(4.38215 1.18538 0)
(4.36478 1.24783 0)
(4.34651 1.31003 0)
(4.32736 1.37196 0)
(4.30733 1.43362 0)
(4.28642 1.49498 0)
(4.26464 1.55603 0)
(4.24198 1.61677 0)
(4.21846 1.67718 0)
(4.19408 1.73725 0)
(4.16885 1.79696 0)
(4.14276 1.8563 0)
(4.11583 1.91527 0)
(4.08807 1.97385 0)
(4.05946 2.03202 0)
(4.03003 2.08978 0)
(3.99978 2.14712 0)
(3.96871 2.20401 0)
(3.93684 2.26046 0)
(3.90416 2.31644 0)
(3.87068 2.37196 0)
(3.83642 2.42699 0)
(3.80137 2.48152 0)
(3.76555 2.53555 0)
(3.72896 2.58906 0)
(3.69161 2.64204 0)
(3.6535 2.69449 0)
(3.61465 2.74638 0)
(3.57507 2.79772 0)
(3.53475 2.84849 0)
(3.49372 2.89867 0)
(3.45197 2.94826 0)
(3.40952 2.99725 0)
(3.36637 3.04563 0)
(3.32254 3.09339 0)
(3.27803 3.14052 0)
(3.23285 3.18701 0)
(3.18701 3.23285 0)
(3.14052 3.27803 0)
(3.09339 3.32254 0)
(3.04563 3.36637 0)
(2.99725 3.40952 0)
(2.94826 3.45197 0)
(2.89867 3.49372 0)
(2.84849 3.53475 0)
(2.79772 3.57507 0)
(2.74638 3.61465 0)
(2.69449 3.6535 0)
(2.64204 3.69161 0)
(2.58906 3.72896 0)
(2.53555 3.76555 0)
(2.48152 3.80137 0)
(2.42699 3.83642 0)
(2.37196 3.87068 0)
(2.31644 3.90416 0)
(2.26046 3.93684 0)
(2.20401 3.96871 0)
(2.14712 3.99978 0)
(2.08978 4.03003 0)
(2.03202 4.05946 0)
(1.97385 4.08807 0)
(1.91527 4.11583 0)
(1.8563 4.14276 0)
(1.79696 4.16885 0)
(1.73725 4.19408 0)
(1.67718 4.21846 0)
(1.61677 4.24198 0)
(1.55603 4.26464 0)
(1.49498 4.28642 0)
(1.43362 4.30733 0)
(1.37196 4.32736 0)
(1.31003 4.34651 0)
(1.24783 4.36478 0)
(1.18538 4.38215 0)
(1.12268 4.39863 0)
(1.05976 4.41421 0)
(0.996618 4.42889 0)
(0.933274 4.44267 0)
(0.86974 4.45555 0)
(0.806028 4.46751 0)
(0.742152 4.47857 0)
(0.678125 4.48871 0)
(0.613959 4.49793 0)
(0.549669 4.50624 0)
(0.485266 4.51363 0)
(0.420764 4.5201 0)
(0.356176 4.52565 0)
(0.291516 4.53027 0)
(0.226796 4.53397 0)
(0.16203 4.53675 0)
(0.0972315 4.5386 0)
(0.0324127 4.53953 0)
(4.51853 0.0322627 0)
(4.5176 0.0967817 0)
(4.51576 0.161281 0)
(4.513 0.225747 0)
(4.50931 0.290167 0)
(4.50471 0.354528 0)
(4.49919 0.418817 0)
(4.49275 0.483021 0)
(4.4854 0.547126 0)
(4.47713 0.611119 0)
(4.46794 0.674988 0)
(4.45785 0.738719 0)
(4.44685 0.802299 0)
(4.43494 0.865716 0)
(4.42212 0.928956 0)
(4.40841 0.992007 0)
(4.39379 1.05486 0)
(4.37828 1.11749 0)
(4.36188 1.17989 0)
(4.34458 1.24206 0)
(4.3264 1.30397 0)
(4.30734 1.36562 0)
(4.2874 1.42698 0)
(4.26659 1.48806 0)
(4.24491 1.54883 0)
(4.22236 1.60929 0)
(4.19895 1.66942 0)
(4.17468 1.72921 0)
(4.14956 1.78865 0)
(4.1236 1.84772 0)
(4.09679 1.90641 0)
(4.06915 1.96472 0)
(4.04068 2.02262 0)
(4.01139 2.08011 0)
(3.98128 2.13718 0)
(3.95035 2.19382 0)
(3.91862 2.25 0)
(3.8861 2.30573 0)
(3.85277 2.36098 0)
(3.81867 2.41576 0)
(3.78378 2.47004 0)
(3.74813 2.52382 0)
(3.71171 2.57708 0)
(3.67453 2.62982 0)
(3.6366 2.68202 0)
(3.59793 2.73368 0)
(3.55853 2.78478 0)
(3.5184 2.83531 0)
(3.47756 2.88526 0)
(3.436 2.93462 0)
(3.39375 2.98339 0)
(3.3508 3.03154 0)
(3.30717 3.07908 0)
(3.26286 3.12599 0)
(3.21789 3.17227 0)
(3.17227 3.21789 0)
(3.12599 3.26286 0)
(3.07908 3.30717 0)
(3.03154 3.3508 0)
(2.98339 3.39375 0)
(2.93462 3.436 0)
(2.88526 3.47756 0)
(2.83531 3.5184 0)
(2.78478 3.55853 0)
(2.73368 3.59793 0)
(2.68202 3.6366 0)
(2.62982 3.67453 0)
(2.57708 3.71171 0)
(2.52382 3.74813 0)
(2.47004 3.78378 0)
(2.41576 3.81867 0)
(2.36098 3.85277 0)
(2.30573 3.8861 0)
(2.25 3.91862 0)
(2.19382 3.95035 0)
(2.13718 3.98128 0)
(2.08011 4.01139 0)
(2.02262 4.04068 0)
(1.96472 4.06915 0)
(1.90641 4.09679 0)
(1.84772 4.1236 0)
(1.78865 4.14956 0)
(1.72921 4.17468 0)
(1.66942 4.19895 0)
(1.60929 4.22236 0)
(1.54883 4.24491 0)
(1.48806 4.26659 0)
(1.42698 4.2874 0)
(1.36562 4.30734 0)
(1.30397 4.3264 0)
(1.24206 4.34458 0)
(1.17989 4.36188 0)
(1.11749 4.37828 0)
(1.05486 4.39379 0)
(0.992007 4.40841 0)
(0.928956 4.42212 0)
(0.865716 4.43494 0)
(0.802299 4.44685 0)
(0.738719 4.45785 0)
(0.674988 4.46794 0)
(0.611119 4.47713 0)
(0.547126 4.4854 0)
(0.483021 4.49275 0)
(0.418817 4.49919 0)
(0.354528 4.50471 0)
(0.290167 4.50931 0)
(0.225747 4.513 0)
(0.161281 4.51576 0)
(0.0967817 4.5176 0)
(0.0322627 4.51853 0)
(4.49786 0.0321152 0)
(4.49694 0.096339 0)
(4.49511 0.160543 0)
(4.49236 0.224715 0)
(4.48869 0.28884 0)
(4.48411 0.352907 0)
(4.47861 0.416902 0)
(4.4722 0.480812 0)
(4.46488 0.544623 0)
(4.45665 0.608324 0)
(4.44751 0.671901 0)
(4.43746 0.73534 0)
(4.42651 0.79863 0)
(4.41465 0.861757 0)
(4.4019 0.924708 0)
(4.38824 0.98747 0)
(4.3737 1.05003 0)
(4.35826 1.11238 0)
(4.34193 1.1745 0)
(4.32471 1.23638 0)
(4.30662 1.29801 0)
(4.28764 1.35937 0)
(4.2678 1.42046 0)
(4.24708 1.48126 0)
(4.22549 1.54175 0)
(4.20305 1.60193 0)
(4.17974 1.66179 0)
(4.15559 1.7213 0)
(4.13058 1.78046 0)
(4.10474 1.83927 0)
(4.07806 1.89769 0)
(4.05054 1.95573 0)
(4.0222 2.01337 0)
(3.99304 2.0706 0)
(3.96307 2.12741 0)
(3.93229 2.18378 0)
(3.9007 2.23971 0)
(3.86832 2.29518 0)
(3.83515 2.35019 0)
(3.8012 2.40471 0)
(3.76648 2.45874 0)
(3.73098 2.51228 0)
(3.69473 2.5653 0)
(3.65772 2.61779 0)
(3.61997 2.66976 0)
(3.58148 2.72118 0)
(3.54225 2.77204 0)
(3.50231 2.82234 0)
(3.46165 2.87206 0)
(3.42029 2.9212 0)
(3.37823 2.96974 0)
(3.33547 3.01768 0)
(3.29204 3.065 0)
(3.24794 3.1117 0)
(3.20318 3.15776 0)
(3.15776 3.20318 0)
(3.1117 3.24794 0)
(3.065 3.29204 0)
(3.01768 3.33547 0)
(2.96974 3.37823 0)
(2.9212 3.42029 0)
(2.87206 3.46165 0)
(2.82234 3.50231 0)
(2.77204 3.54225 0)
(2.72118 3.58148 0)
(2.66976 3.61997 0)
(2.61779 3.65772 0)
(2.5653 3.69473 0)
(2.51228 3.73098 0)
(2.45874 3.76648 0)
(2.40471 3.8012 0)
(2.35019 3.83515 0)
(2.29518 3.86832 0)
(2.23971 3.9007 0)
(2.18378 3.93229 0)
(2.12741 3.96307 0)
(2.0706 3.99304 0)
(2.01337 4.0222 0)
(1.95573 4.05054 0)
(1.89769 4.07806 0)
(1.83927 4.10474 0)
(1.78046 4.13058 0)
(1.7213 4.15559 0)
(1.66179 4.17974 0)
(1.60193 4.20305 0)
(1.54175 4.22549 0)
(1.48126 4.24708 0)
(1.42046 4.2678 0)
(1.35937 4.28764 0)
(1.29801 4.30662 0)
(1.23638 4.32471 0)
(1.1745 4.34193 0)
(1.11238 4.35826 0)
(1.05003 4.3737 0)
(0.98747 4.38824 0)
(0.924708 4.4019 0)
(0.861757 4.41465 0)
(0.79863 4.42651 0)
(0.73534 4.43746 0)
(0.671901 4.44751 0)
(0.608324 4.45665 0)
(0.544623 4.46488 0)
(0.480812 4.4722 0)
(0.416902 4.47861 0)
(0.352907 4.48411 0)
(0.28884 4.48869 0)
(0.224715 4.49236 0)
(0.160543 4.49511 0)
(0.096339 4.49694 0)
(0.0321152 4.49786 0)
(4.4776 0.0319706 0)
(4.47669 0.0959052 0)
(4.47486 0.15982 0)
(4.47213 0.223703 0)
(4.46848 0.287539 0)
(4.46391 0.351318 0)
(4.45844 0.415024 0)
(4.45206 0.478646 0)
(4.44477 0.54217 0)
(4.43658 0.605584 0)
(4.42748 0.668875 0)
(4.41748 0.732028 0)
(4.40657 0.795033 0)
(4.39477 0.857876 0)
(4.38207 0.920543 0)
(4.36848 0.983023 0)
(4.354 1.0453 0)
(4.33863 1.10737 0)
(4.32237 1.16921 0)
(4.30524 1.23081 0)
(4.28722 1.29216 0)
(4.26833 1.35325 0)
(4.24857 1.41406 0)
(4.22795 1.47458 0)
(4.20646 1.53481 0)
(4.18412 1.59472 0)
(4.16092 1.6543 0)
(4.13687 1.71355 0)
(4.11198 1.77245 0)
(4.08625 1.83098 0)
(4.05969 1.88915 0)
(4.0323 1.94692 0)
(4.00409 2.0043 0)
(3.97506 2.06128 0)
(3.94522 2.11783 0)
(3.91458 2.17395 0)
(3.88313 2.22962 0)
(3.8509 2.28485 0)
(3.81788 2.3396 0)
(3.78408 2.39388 0)
(3.74952 2.44767 0)
(3.71418 2.50096 0)
(3.67809 2.55374 0)
(3.64125 2.606 0)
(3.60367 2.65773 0)
(3.56535 2.70892 0)
(3.5263 2.75956 0)
(3.48654 2.80963 0)
(3.44606 2.85913 0)
(3.40488 2.90804 0)
(3.36301 2.95637 0)
(3.32045 3.00409 0)
(3.27722 3.0512 0)
(3.23331 3.09768 0)
(3.18875 3.14354 0)
(3.14354 3.18875 0)
(3.09768 3.23331 0)
(3.0512 3.27722 0)
(3.00409 3.32045 0)
(2.95637 3.36301 0)
(2.90804 3.40488 0)
(2.85913 3.44606 0)
(2.80963 3.48654 0)
(2.75956 3.5263 0)
(2.70892 3.56535 0)
(2.65773 3.60367 0)
(2.606 3.64125 0)
(2.55374 3.67809 0)
(2.50096 3.71418 0)
(2.44767 3.74952 0)
(2.39388 3.78408 0)
(2.3396 3.81788 0)
(2.28485 3.8509 0)
(2.22962 3.88313 0)
(2.17395 3.91458 0)
(2.11783 3.94522 0)
(2.06128 3.97506 0)
(2.0043 4.00409 0)
(1.94692 4.0323 0)
(1.88915 4.05969 0)
(1.83098 4.08625 0)
(1.77245 4.11198 0)
(1.71355 4.13687 0)
(1.6543 4.16092 0)
(1.59472 4.18412 0)
(1.53481 4.20646 0)
(1.47458 4.22795 0)
(1.41406 4.24857 0)
(1.35325 4.26833 0)
(1.29216 4.28722 0)
(1.23081 4.30524 0)
(1.16921 4.32237 0)
(1.10737 4.33863 0)
(1.0453 4.354 0)
(0.983023 4.36848 0)
(0.920543 4.38207 0)
(0.857876 4.39477 0)
(0.795033 4.40657 0)
(0.732028 4.41748 0)
(0.668875 4.42748 0)
(0.605584 4.43658 0)
(0.542171 4.44477 0)
(0.478646 4.45206 0)
(0.415024 4.45844 0)
(0.351318 4.46391 0)
(0.287539 4.46848 0)
(0.223703 4.47213 0)
(0.15982 4.47486 0)
(0.0959052 4.47669 0)
(0.0319706 4.4776 0)
(4.4577 0.0318285 0)
(4.4568 0.0954789 0)
(4.45498 0.15911 0)
(4.45225 0.222708 0)
(4.44862 0.286262 0)
(4.44408 0.349756 0)
(4.43863 0.41318 0)
(4.43228 0.476519 0)
(4.42502 0.539761 0)
(4.41686 0.602893 0)
(4.4078 0.665902 0)
(4.39784 0.728775 0)
(4.38699 0.7915 0)
(4.37524 0.854063 0)
(4.3626 0.916452 0)
(4.34907 0.978654 0)
(4.33465 1.04066 0)
(4.31935 1.10245 0)
(4.30316 1.16401 0)
(4.2861 1.22534 0)
(4.26817 1.28642 0)
(4.24936 1.34724 0)
(4.22969 1.40778 0)
(4.20916 1.46803 0)
(4.18777 1.52799 0)
(4.16552 1.58763 0)
(4.14243 1.64695 0)
(4.11849 1.70593 0)
(4.09371 1.76457 0)
(4.06809 1.82285 0)
(4.04165 1.88075 0)
(4.01438 1.93827 0)
(3.98629 1.9954 0)
(3.95739 2.05212 0)
(3.92769 2.10842 0)
(3.89718 2.16429 0)
(3.86588 2.21971 0)
(3.83379 2.27469 0)
(3.80092 2.3292 0)
(3.76727 2.38324 0)
(3.73285 2.43679 0)
(3.69768 2.48985 0)
(3.66174 2.54239 0)
(3.62507 2.59442 0)
(3.58765 2.64592 0)
(3.5495 2.69688 0)
(3.51063 2.74729 0)
(3.47104 2.79714 0)
(3.43075 2.84642 0)
(3.38975 2.89512 0)
(3.34807 2.94323 0)
(3.3057 2.99074 0)
(3.26265 3.03764 0)
(3.21894 3.08392 0)
(3.17458 3.12957 0)
(3.12957 3.17458 0)
(3.08392 3.21894 0)
(3.03764 3.26265 0)
(2.99074 3.3057 0)
(2.94323 3.34807 0)
(2.89512 3.38975 0)
(2.84642 3.43075 0)
(2.79714 3.47104 0)
(2.74729 3.51063 0)
(2.69688 3.5495 0)
(2.64592 3.58765 0)
(2.59442 3.62507 0)
(2.54239 3.66174 0)
(2.48985 3.69768 0)
(2.43679 3.73285 0)
(2.38324 3.76727 0)
(2.3292 3.80092 0)
(2.27469 3.83379 0)
(2.21971 3.86588 0)
(2.16429 3.89718 0)
(2.10842 3.92769 0)
(2.05212 3.95739 0)
(1.9954 3.98629 0)
(1.93827 4.01438 0)
(1.88075 4.04165 0)
(1.82285 4.06809 0)
(1.76457 4.09371 0)
(1.70593 4.11849 0)
(1.64695 4.14243 0)
(1.58763 4.16552 0)
(1.52799 4.18777 0)
(1.46803 4.20916 0)
(1.40778 4.22969 0)
(1.34724 4.24936 0)
(1.28642 4.26817 0)
(1.22534 4.2861 0)
(1.16401 4.30316 0)
(1.10245 4.31935 0)
(1.04066 4.33465 0)
(0.978654 4.34907 0)
(0.916452 4.3626 0)
(0.854063 4.37524 0)
(0.7915 4.38699 0)
(0.728775 4.39784 0)
(0.665902 4.4078 0)
(0.602893 4.41686 0)
(0.539761 4.42502 0)
(0.476519 4.43228 0)
(0.41318 4.43863 0)
(0.349756 4.44408 0)
(0.286262 4.44862 0)
(0.222709 4.45225 0)
(0.15911 4.45498 0)
(0.0954789 4.4568 0)
(0.0318285 4.4577 0)
(4.43819 0.0316891 0)
(4.43728 0.0950609 0)
(4.43547 0.158413 0)
(4.43276 0.221733 0)
(4.42914 0.285008 0)
(4.42462 0.348225 0)
(4.41919 0.411371 0)
(4.41287 0.474433 0)
(4.40564 0.537398 0)
(4.39752 0.600253 0)
(4.3885 0.662986 0)
(4.37859 0.725584 0)
(4.36778 0.788034 0)
(4.35608 0.850323 0)
(4.3435 0.912439 0)
(4.33002 0.974369 0)
(4.31567 1.0361 0)
(4.30043 1.09762 0)
(4.28432 1.15892 0)
(4.26734 1.21998 0)
(4.24948 1.28079 0)
(4.23076 1.34134 0)
(4.21117 1.40161 0)
(4.19073 1.4616 0)
(4.16943 1.5213 0)
(4.14728 1.58068 0)
(4.12429 1.63974 0)
(4.10045 1.69846 0)
(4.07578 1.75684 0)
(4.05028 1.81486 0)
(4.02395 1.87251 0)
(3.9968 1.92978 0)
(3.96884 1.98666 0)
(3.94007 2.04313 0)
(3.91049 2.09918 0)
(3.88012 2.15481 0)
(3.84895 2.21 0)
(3.817 2.26473 0)
(3.78427 2.319 0)
(3.75077 2.37281 0)
(3.71651 2.42612 0)
(3.68148 2.47895 0)
(3.64571 2.53126 0)
(3.60919 2.58306 0)
(3.57194 2.63434 0)
(3.53396 2.68507 0)
(3.49526 2.73526 0)
(3.45584 2.7849 0)
(3.41572 2.83396 0)
(3.37491 2.88244 0)
(3.33341 2.93034 0)
(3.29122 2.97764 0)
(3.24837 3.02434 0)
(3.20485 3.07041 0)
(3.16068 3.11586 0)
(3.11586 3.16068 0)
(3.07041 3.20485 0)
(3.02434 3.24837 0)
(2.97764 3.29122 0)
(2.93034 3.33341 0)
(2.88244 3.37491 0)
(2.83396 3.41572 0)
(2.7849 3.45584 0)
(2.73526 3.49526 0)
(2.68507 3.53396 0)
(2.63434 3.57194 0)
(2.58306 3.60919 0)
(2.53126 3.64571 0)
(2.47895 3.68148 0)
(2.42612 3.71651 0)
(2.37281 3.75077 0)
(2.319 3.78427 0)
(2.26473 3.817 0)
(2.21 3.84895 0)
(2.15481 3.88012 0)
(2.09918 3.91049 0)
(2.04313 3.94007 0)
(1.98666 3.96884 0)
(1.92978 3.9968 0)
(1.87251 4.02395 0)
(1.81486 4.05028 0)
(1.75684 4.07578 0)
(1.69846 4.10045 0)
(1.63974 4.12429 0)
(1.58068 4.14728 0)
(1.5213 4.16943 0)
(1.4616 4.19073 0)
(1.40161 4.21117 0)
(1.34134 4.23076 0)
(1.28079 4.24948 0)
(1.21998 4.26734 0)
(1.15892 4.28432 0)
(1.09762 4.30043 0)
(1.0361 4.31567 0)
(0.974369 4.33002 0)
(0.912439 4.3435 0)
(0.850323 4.35608 0)
(0.788034 4.36778 0)
(0.725584 4.37859 0)
(0.662986 4.3885 0)
(0.600253 4.39752 0)
(0.537398 4.40564 0)
(0.474433 4.41287 0)
(0.411371 4.41919 0)
(0.348225 4.42462 0)
(0.285008 4.42914 0)
(0.221733 4.43276 0)
(0.158413 4.43547 0)
(0.0950609 4.43728 0)
(0.0316891 4.43819 0)
(4.41903 0.0315523 0)
(4.41813 0.0946505 0)
(4.41632 0.157729 0)
(4.41362 0.220776 0)
(4.41002 0.283778 0)
(4.40552 0.346722 0)
(4.40012 0.409595 0)
(4.39382 0.472384 0)
(4.38663 0.535078 0)
(4.37854 0.597662 0)
(4.36956 0.660124 0)
(4.35969 0.722452 0)
(4.34892 0.784632 0)
(4.33728 0.846653 0)
(4.32474 0.9085 0)
(4.31133 0.970163 0)
(4.29704 1.03163 0)
(4.28187 1.09288 0)
(4.26583 1.15391 0)
(4.24891 1.21471 0)
(4.23114 1.27526 0)
(4.21249 1.33555 0)
(4.19299 1.39556 0)
(4.17264 1.45529 0)
(4.15143 1.51473 0)
(4.12938 1.57385 0)
(4.10648 1.63266 0)
(4.08275 1.69113 0)
(4.05819 1.74926 0)
(4.0328 1.80703 0)
(4.00658 1.86443 0)
(3.97955 1.92145 0)
(3.95171 1.97808 0)
(3.92306 2.03431 0)
(3.89361 2.09012 0)
(3.86337 2.14551 0)
(3.83233 2.20045 0)
(3.80052 2.25495 0)
(3.76794 2.30899 0)
(3.73458 2.36256 0)
(3.70046 2.41565 0)
(3.66559 2.46824 0)
(3.62997 2.52034 0)
(3.59361 2.57191 0)
(3.55652 2.62297 0)
(3.5187 2.67348 0)
(3.48017 2.72346 0)
(3.44093 2.77287 0)
(3.40098 2.82172 0)
(3.36034 2.87 0)
(3.31902 2.91769 0)
(3.27701 2.96479 0)
(3.23434 3.01128 0)
(3.19101 3.05716 0)
(3.14703 3.10241 0)
(3.10241 3.14703 0)
(3.05716 3.19101 0)
(3.01128 3.23434 0)
(2.96479 3.27701 0)
(2.91769 3.31902 0)
(2.87 3.36034 0)
(2.82172 3.40098 0)
(2.77287 3.44093 0)
(2.72346 3.48017 0)
(2.67348 3.5187 0)
(2.62297 3.55652 0)
(2.57191 3.59361 0)
(2.52034 3.62997 0)
(2.46824 3.66559 0)
(2.41565 3.70046 0)
(2.36256 3.73458 0)
(2.30899 3.76794 0)
(2.25495 3.80052 0)
(2.20045 3.83233 0)
(2.14551 3.86337 0)
(2.09012 3.89361 0)
(2.03431 3.92306 0)
(1.97808 3.95171 0)
(1.92145 3.97955 0)
(1.86443 4.00658 0)
(1.80703 4.0328 0)
(1.74926 4.05819 0)
(1.69113 4.08275 0)
(1.63266 4.10648 0)
(1.57385 4.12938 0)
(1.51473 4.15143 0)
(1.45529 4.17264 0)
(1.39556 4.19299 0)
(1.33555 4.21249 0)
(1.27526 4.23114 0)
(1.21471 4.24891 0)
(1.15391 4.26583 0)
(1.09288 4.28187 0)
(1.03163 4.29704 0)
(0.970163 4.31133 0)
(0.9085 4.32474 0)
(0.846653 4.33728 0)
(0.784632 4.34892 0)
(0.722452 4.35969 0)
(0.660124 4.36956 0)
(0.597662 4.37854 0)
(0.535078 4.38663 0)
(0.472384 4.39382 0)
(0.409595 4.40012 0)
(0.346722 4.40552 0)
(0.283778 4.41002 0)
(0.220776 4.41362 0)
(0.157729 4.41632 0)
(0.0946505 4.41813 0)
(0.0315523 4.41903 0)
(4.40023 0.0314181 0)
(4.39933 0.0942479 0)
(4.39754 0.157059 0)
(4.39485 0.219837 0)
(4.39126 0.282571 0)
(4.38678 0.345247 0)
(4.3814 0.407853 0)
(4.37513 0.470375 0)
(4.36797 0.532802 0)
(4.35991 0.59512 0)
(4.35097 0.657316 0)
(4.34114 0.719379 0)
(4.33043 0.781295 0)
(4.31883 0.843052 0)
(4.30635 0.904636 0)
(4.29299 0.966036 0)
(4.27876 1.02724 0)
(4.26366 1.08823 0)
(4.24768 1.14901 0)
(4.23084 1.20954 0)
(4.21314 1.26983 0)
(4.19458 1.32987 0)
(4.17516 1.38963 0)
(4.15489 1.4491 0)
(4.13377 1.50829 0)
(4.11182 1.56716 0)
(4.08902 1.62572 0)
(4.06539 1.68394 0)
(4.04093 1.74182 0)
(4.01564 1.79934 0)
(3.98954 1.8565 0)
(3.96262 1.91328 0)
(3.9349 1.96967 0)
(3.90637 2.02566 0)
(3.87705 2.08123 0)
(3.84693 2.13638 0)
(3.81603 2.1911 0)
(3.78436 2.24536 0)
(3.75191 2.29917 0)
(3.7187 2.35251 0)
(3.68472 2.40537 0)
(3.65 2.45775 0)
(3.61453 2.50962 0)
(3.57833 2.56097 0)
(3.54139 2.61181 0)
(3.50374 2.66211 0)
(3.46537 2.71187 0)
(3.42629 2.76108 0)
(3.38651 2.80972 0)
(3.34605 2.85779 0)
(3.3049 2.90528 0)
(3.26308 2.95218 0)
(3.22059 2.99847 0)
(3.17744 3.04416 0)
(3.13365 3.08922 0)
(3.08922 3.13365 0)
(3.04416 3.17744 0)
(2.99847 3.22059 0)
(2.95218 3.26308 0)
(2.90528 3.3049 0)
(2.85779 3.34605 0)
(2.80972 3.38651 0)
(2.76108 3.42629 0)
(2.71187 3.46537 0)
(2.66211 3.50374 0)
(2.61181 3.54139 0)
(2.56097 3.57833 0)
(2.50962 3.61453 0)
(2.45775 3.65 0)
(2.40537 3.68472 0)
(2.35251 3.7187 0)
(2.29917 3.75191 0)
(2.24536 3.78436 0)
(2.1911 3.81603 0)
(2.13638 3.84693 0)
(2.08123 3.87705 0)
(2.02566 3.90637 0)
(1.96967 3.9349 0)
(1.91328 3.96262 0)
(1.8565 3.98954 0)
(1.79934 4.01564 0)
(1.74182 4.04093 0)
(1.68394 4.06539 0)
(1.62572 4.08902 0)
(1.56716 4.11182 0)
(1.50829 4.13377 0)
(1.4491 4.15489 0)
(1.38963 4.17516 0)
(1.32987 4.19458 0)
(1.26983 4.21314 0)
(1.20954 4.23084 0)
(1.14901 4.24768 0)
(1.08823 4.26366 0)
(1.02724 4.27876 0)
(0.966036 4.29299 0)
(0.904636 4.30635 0)
(0.843052 4.31883 0)
(0.781295 4.33043 0)
(0.719379 4.34114 0)
(0.657316 4.35097 0)
(0.59512 4.35991 0)
(0.532802 4.36797 0)
(0.470375 4.37513 0)
(0.407853 4.3814 0)
(0.345247 4.38678 0)
(0.282571 4.39126 0)
(0.219837 4.39485 0)
(0.157059 4.39754 0)
(0.0942479 4.39933 0)
(0.0314181 4.40023 0)
(4.38179 0.0312864 0)
(4.3809 0.0938529 0)
(4.37911 0.1564 0)
(4.37643 0.218916 0)
(4.37286 0.281387 0)
(4.36839 0.3438 0)
(4.36304 0.406143 0)
(4.35679 0.468404 0)
(4.34966 0.530569 0)
(4.34164 0.592626 0)
(4.33274 0.654562 0)
(4.32295 0.716364 0)
(4.31228 0.77802 0)
(4.30073 0.839518 0)
(4.2883 0.900845 0)
(4.275 0.961988 0)
(4.26083 1.02293 0)
(4.24579 1.08367 0)
(4.22988 1.14419 0)
(4.21311 1.20447 0)
(4.19548 1.26451 0)
(4.177 1.32429 0)
(4.15766 1.3838 0)
(4.13748 1.44303 0)
(4.11645 1.50196 0)
(4.09458 1.56059 0)
(4.07188 1.6189 0)
(4.04835 1.67688 0)
(4.02399 1.73452 0)
(3.99881 1.7918 0)
(3.97282 1.84872 0)
(3.94601 1.90526 0)
(3.91841 1.96141 0)
(3.89 2.01717 0)
(3.8608 2.07251 0)
(3.83081 2.12743 0)
(3.80004 2.18191 0)
(3.7685 2.23595 0)
(3.73618 2.28954 0)
(3.70311 2.34265 0)
(3.66928 2.39529 0)
(3.6347 2.44744 0)
(3.59938 2.4991 0)
(3.56333 2.55024 0)
(3.52655 2.60086 0)
(3.48905 2.65095 0)
(3.45084 2.70051 0)
(3.41193 2.74951 0)
(3.37232 2.79795 0)
(3.33202 2.84582 0)
(3.29105 2.89311 0)
(3.2494 2.93981 0)
(3.20709 2.98591 0)
(3.16412 3.0314 0)
(3.12052 3.07627 0)
(3.07627 3.12052 0)
(3.0314 3.16412 0)
(2.98591 3.20709 0)
(2.93981 3.2494 0)
(2.89311 3.29105 0)
(2.84582 3.33202 0)
(2.79795 3.37232 0)
(2.74951 3.41193 0)
(2.70051 3.45084 0)
(2.65095 3.48905 0)
(2.60086 3.52655 0)
(2.55024 3.56333 0)
(2.4991 3.59938 0)
(2.44744 3.6347 0)
(2.39529 3.66928 0)
(2.34265 3.70311 0)
(2.28954 3.73618 0)
(2.23595 3.7685 0)
(2.18191 3.80004 0)
(2.12743 3.83081 0)
(2.07251 3.8608 0)
(2.01717 3.89 0)
(1.96141 3.91841 0)
(1.90526 3.94601 0)
(1.84872 3.97282 0)
(1.7918 3.99881 0)
(1.73452 4.02399 0)
(1.67688 4.04835 0)
(1.6189 4.07188 0)
(1.56059 4.09458 0)
(1.50196 4.11645 0)
(1.44303 4.13748 0)
(1.3838 4.15766 0)
(1.32429 4.177 0)
(1.26451 4.19548 0)
(1.20447 4.21311 0)
(1.14419 4.22988 0)
(1.08367 4.24579 0)
(1.02293 4.26083 0)
(0.961988 4.275 0)
(0.900845 4.2883 0)
(0.839518 4.30073 0)
(0.77802 4.31228 0)
(0.716364 4.32295 0)
(0.654562 4.33274 0)
(0.592626 4.34164 0)
(0.530569 4.34966 0)
(0.468404 4.35679 0)
(0.406143 4.36304 0)
(0.3438 4.36839 0)
(0.281387 4.37286 0)
(0.218916 4.37643 0)
(0.1564 4.37911 0)
(0.0938529 4.3809 0)
(0.0312864 4.38179 0)
(4.3637 0.0311573 0)
(4.36281 0.0934654 0)
(4.36103 0.155755 0)
(4.35836 0.218012 0)
(4.3548 0.280225 0)
(4.35036 0.342381 0)
(4.34502 0.404466 0)
(4.33881 0.46647 0)
(4.3317 0.528378 0)
(4.32372 0.590179 0)
(4.31485 0.651859 0)
(4.3051 0.713406 0)
(4.29447 0.774808 0)
(4.28297 0.836052 0)
(4.2706 0.897126 0)
(4.25735 0.958016 0)
(4.24324 1.01871 0)
(4.22826 1.0792 0)
(4.21242 1.13947 0)
(4.19572 1.1995 0)
(4.17816 1.25929 0)
(4.15975 1.31882 0)
(4.1405 1.37809 0)
(4.1204 1.43707 0)
(4.09945 1.49576 0)
(4.07768 1.55415 0)
(4.05507 1.61222 0)
(4.03163 1.66996 0)
(4.00738 1.72736 0)
(3.9823 1.7844 0)
(3.95642 1.84109 0)
(3.92972 1.8974 0)
(3.90223 1.95332 0)
(3.87394 2.00884 0)
(3.84486 2.06395 0)
(3.81499 2.11864 0)
(3.78435 2.1729 0)
(3.75294 2.22672 0)
(3.72076 2.28008 0)
(3.68782 2.33298 0)
(3.65413 2.3854 0)
(3.6197 2.43734 0)
(3.58452 2.48878 0)
(3.54862 2.53971 0)
(3.51199 2.59012 0)
(3.47465 2.64001 0)
(3.4366 2.68936 0)
(3.39784 2.73816 0)
(3.3584 2.7864 0)
(3.31827 2.83407 0)
(3.27746 2.88116 0)
(3.23598 2.92767 0)
(3.19385 2.97358 0)
(3.15106 3.01888 0)
(3.10763 3.06357 0)
(3.06357 3.10763 0)
(3.01888 3.15106 0)
(2.97358 3.19385 0)
(2.92767 3.23598 0)
(2.88116 3.27746 0)
(2.83407 3.31827 0)
(2.7864 3.3584 0)
(2.73816 3.39784 0)
(2.68936 3.4366 0)
(2.64001 3.47465 0)
(2.59012 3.51199 0)
(2.53971 3.54862 0)
(2.48878 3.58452 0)
(2.43734 3.6197 0)
(2.3854 3.65413 0)
(2.33298 3.68782 0)
(2.28008 3.72076 0)
(2.22672 3.75294 0)
(2.1729 3.78435 0)
(2.11864 3.81499 0)
(2.06395 3.84486 0)
(2.00884 3.87394 0)
(1.95332 3.90223 0)
(1.8974 3.92972 0)
(1.84109 3.95642 0)
(1.7844 3.9823 0)
(1.72736 4.00738 0)
(1.66996 4.03163 0)
(1.61222 4.05507 0)
(1.55415 4.07768 0)
(1.49576 4.09945 0)
(1.43707 4.1204 0)
(1.37809 4.1405 0)
(1.31882 4.15975 0)
(1.25929 4.17816 0)
(1.1995 4.19572 0)
(1.13947 4.21242 0)
(1.0792 4.22826 0)
(1.01871 4.24324 0)
(0.958016 4.25735 0)
(0.897126 4.2706 0)
(0.836052 4.28297 0)
(0.774808 4.29447 0)
(0.713406 4.3051 0)
(0.651859 4.31485 0)
(0.590179 4.32372 0)
(0.528378 4.3317 0)
(0.46647 4.33881 0)
(0.404466 4.34502 0)
(0.342381 4.35036 0)
(0.280225 4.3548 0)
(0.218012 4.35836 0)
(0.155755 4.36103 0)
(0.0934654 4.36281 0)
(0.0311573 4.3637 0)
(4.34595 0.0310306 0)
(4.34507 0.0930854 0)
(4.3433 0.155121 0)
(4.34064 0.217125 0)
(4.33709 0.279085 0)
(4.33267 0.340988 0)
(4.32736 0.402822 0)
(4.32116 0.464573 0)
(4.31409 0.52623 0)
(4.30613 0.587779 0)
(4.2973 0.649208 0)
(4.28759 0.710505 0)
(4.27701 0.771658 0)
(4.26556 0.832652 0)
(4.25323 0.893477 0)
(4.24004 0.95412 0)
(4.22598 1.01457 0)
(4.21106 1.07481 0)
(4.19529 1.13483 0)