/*--------------------------------*- C++ -*----------------------------------*\
| =========                 |                                                 |
| \\      /  F ield         | OpenFOAM: The Open Source CFD Toolbox           |
|  \\    /   O peration     | Version:  2312                                  |
|   \\  /    A nd           | Website:  www.openfoam.com                      |
|    \\/     M anipulation  |                                                 |
\*---------------------------------------------------------------------------*/
FoamFile
{
    version     2.0;
    format      ascii;
    arch        "LSB;label=32;scalar=64";
    class       volSymmTensorField;
    location    "90";
    object      sigma:Transformed;
}
// * * * * * * * * * * * * * * * * * * * * * * * * * * * * * * * * * * * * * //

dimensions      [1 -1 -2 0 0 0 0];

internalField   nonuniform List<symmTensor> 
12870
(
(-8.84507e+07 -0.0613313 -1.47212e-11 1.85201e+08 -4.2715e-09 -2.16572e+07)
(-8.84507e+07 0.133507 -2.08973e-09 1.85201e+08 2.13575e-09 -2.16572e+07)
(-8.84507e+07 -0.0632434 3.16036e-09 1.85201e+08 4.2715e-09 -2.16572e+07)
(-8.84507e+07 0.135316 7.36062e-12 1.85201e+08 -2.13575e-09 -2.16572e+07)
(-8.84507e+07 -0.342316 -1.05591e-09 1.85201e+08 2.13575e-09 -2.16572e+07)
(-8.84507e+07 0.130318 3.17508e-09 1.85201e+08 -2.62986e-18 -2.16572e+07)
(-8.84507e+07 -0.0477007 -1.05591e-09 1.85201e+08 -2.13575e-09 -2.16572e+07)
(-8.84507e+07 0.237196 2.13389e-09 1.85201e+08 2.13575e-09 -2.16572e+07)
(-8.84507e+07 0.0763672 -5.2691e-18 1.85201e+08 4.2715e-09 -2.16572e+07)
(-8.84507e+07 0.0218613 2.11917e-09 1.85201e+08 2.13575e-09 -2.16572e+07)
(-8.84507e+07 -0.0833362 2.11917e-09 1.85201e+08 -2.13575e-09 -2.16572e+07)
(-8.84507e+07 0.116694 1.04855e-09 1.85201e+08 -8.543e-09 -2.16572e+07)
(-8.84507e+07 -0.396745 -4.2089e-09 1.85201e+08 4.29104e-17 -2.16572e+07)
(-8.84507e+07 0.343774 -1.10743e-09 1.85201e+08 4.80573e-17 -2.16572e+07)
(-8.84507e+07 -0.227874 -2.08973e-09 1.85201e+08 -2.13575e-09 -2.16572e+07)
(-8.84507e+07 0.0657435 -2.13389e-09 1.85201e+08 6.40725e-09 -2.16572e+07)
(-8.84507e+07 -0.189451 -7.36062e-12 1.85201e+08 2.13575e-09 -2.16572e+07)
(-8.84507e+07 -0.0777967 1.06327e-09 1.85201e+08 9.926e-19 -2.16572e+07)
(-8.84507e+07 0.0126684 1.05591e-09 1.85201e+08 -2.13575e-09 -2.16572e+07)
(-8.84507e+07 0.0300728 7.36062e-12 1.85201e+08 -2.13575e-09 -2.16572e+07)
(-8.84507e+07 0.152637 0 1.85201e+08 0 -2.16572e+07)
(-8.84507e+07 -0.225566 -1.05591e-09 1.85201e+08 2.13575e-09 -2.16572e+07)
(-8.84507e+07 0.286643 -5.13609e-18 1.85201e+08 4.2715e-09 -2.16572e+07)
(-8.84507e+07 -0.320276 1.04118e-09 1.85201e+08 -2.13575e-09 -2.16572e+07)
(-8.84507e+07 0.203472 -1.04855e-09 1.85201e+08 -4.2715e-09 -2.16572e+07)
(-8.84507e+07 -0.332702 2.14125e-09 1.85201e+08 4.2715e-09 -2.16572e+07)
(-8.84507e+07 0.0311572 2.08237e-09 1.85201e+08 -4.2715e-09 -2.16572e+07)
(-8.84507e+07 -0.0581083 -2.08237e-09 1.85201e+08 -4.2715e-09 -2.16572e+07)
(-8.84507e+07 0.132644 -1.09271e-09 1.85201e+08 5.65782e-17 -2.16572e+07)
(-8.84507e+07 -0.213361 -3.14564e-09 1.85201e+08 4.2715e-09 -2.16572e+07)
(-8.84507e+07 0.386741 2.09709e-09 1.85201e+08 8.543e-09 -2.16572e+07)
(-8.84507e+07 -0.219676 -1.47212e-11 1.85201e+08 -4.2715e-09 -2.16572e+07)
(-8.84507e+07 0.120485 -1.04118e-09 1.85201e+08 -2.13575e-09 -2.16572e+07)
(-8.84507e+07 -0.0876872 -1.07063e-09 1.85201e+08 2.13575e-09 -2.16572e+07)
(-8.84507e+07 0.0556204 1.05591e-09 1.85201e+08 -2.13575e-09 -2.16572e+07)
(-8.84507e+07 -0.149282 -1.05591e-09 1.85201e+08 -2.13575e-09 -2.16572e+07)
(-8.84507e+07 0.0305435 -1.47212e-11 1.85201e+08 -4.2715e-09 -2.16572e+07)
(-8.84507e+07 -0.117591 -2.11181e-09 1.85201e+08 -4.2715e-09 -2.16572e+07)
(-8.84507e+07 0.0211515 -4.23834e-09 1.85201e+08 4.2715e-09 -2.16572e+07)
(-8.84507e+07 0.154299 -2.12653e-09 1.85201e+08 8.543e-09 -2.16572e+07)
(-8.84507e+07 -0.251902 2.09709e-09 1.85201e+08 -2.62382e-17 -2.16572e+07)
(-8.84507e+07 0.021748 2.94425e-11 1.85201e+08 -8.14968e-18 -2.16572e+07)
(-8.84507e+07 0.218396 2.11181e-09 1.85201e+08 4.2715e-09 -2.16572e+07)
(-8.84507e+07 -0.0486882 -1.47212e-11 1.85201e+08 -4.2715e-09 -2.16572e+07)
(-8.84507e+07 -0.0561402 -1.03382e-09 1.85201e+08 4.73545e-17 -2.16572e+07)
(-8.84507e+07 -0.00444442 2.11181e-09 1.85201e+08 4.2715e-09 -2.16572e+07)
(-8.84507e+07 0.250898 0 1.85201e+08 0 -2.16572e+07)
(-8.84507e+07 -0.207155 1.04855e-09 1.85201e+08 -4.2715e-09 -2.16572e+07)
(-8.84507e+07 0.0844608 -1.4319e-17 1.85201e+08 -8.543e-09 -2.16572e+07)
(-8.84507e+07 -0.210958 -3.17508e-09 1.85201e+08 -4.2715e-09 -2.16572e+07)
(-8.84507e+07 0.196286 -3.1898e-09 1.85201e+08 6.89755e-17 -2.16572e+07)
(-8.84507e+07 -0.0443907 -3.16772e-09 1.85201e+08 6.40725e-09 -2.16572e+07)
(-8.84507e+07 0.0296618 1.03382e-09 1.85201e+08 4.2715e-09 -2.16572e+07)
(-8.84507e+07 0.166039 -2.11181e-09 1.85201e+08 2.12411e-17 -2.16572e+07)
(-8.84507e+07 -0.288245 -1.06327e-09 1.85201e+08 4.2715e-09 -2.16572e+07)
(-8.84507e+07 0.380772 4.23098e-09 1.85201e+08 -2.13575e-09 -2.16572e+07)
(-8.84507e+07 -0.0778746 2.94425e-11 1.85201e+08 -5.77886e-19 -2.16572e+07)
(-8.84507e+07 -0.121715 -4.41637e-11 1.85201e+08 -4.2715e-09 -2.16572e+07)
(-8.84507e+07 -0.137662 -3.13091e-09 1.85201e+08 -3.94666e-17 -2.16572e+07)
(-8.84507e+07 0.232885 2.08237e-09 1.85201e+08 4.2715e-09 -2.16572e+07)
(-8.84507e+07 -0.0868775 -1.02646e-09 1.85201e+08 2.13575e-09 -2.16572e+07)
(-8.84507e+07 0.144386 1.00438e-09 1.85201e+08 -4.2715e-09 -2.16572e+07)
(-8.84507e+07 -0.309144 -3.12355e-09 1.85201e+08 -2.13575e-09 -2.16572e+07)
(-8.84507e+07 -0.0382689 2.08973e-09 1.85201e+08 6.40725e-09 -2.16572e+07)
(-8.84507e+07 -0.247061 1.07799e-09 1.85201e+08 5.73103e-18 -2.16572e+07)
(-8.84507e+07 0.349974 -1.47212e-11 1.85201e+08 1.25563e-17 -2.16572e+07)
(-8.84507e+07 -0.391848 1.07063e-09 1.85201e+08 -2.13575e-09 -2.16572e+07)
(-8.84507e+07 0.349757 -1.07063e-09 1.85201e+08 -2.13575e-09 -2.16572e+07)
(-8.84507e+07 -0.220678 -7.36061e-12 1.85201e+08 -6.40725e-09 -2.16572e+07)
(-8.84507e+07 0.334715 -4.2089e-09 1.85201e+08 4.2715e-09 -2.16572e+07)
(-8.84507e+07 -0.141948 1.0191e-09 1.85201e+08 4.2715e-09 -2.16572e+07)
(-8.84507e+07 -0.0286209 1.47212e-11 1.85201e+08 -4.2715e-09 -2.16572e+07)
(-8.84507e+07 -0.0504482 2.14125e-09 1.85201e+08 4.2715e-09 -2.16572e+07)
(-8.84507e+07 -0.049503 -2.20818e-11 1.85201e+08 2.13575e-09 -2.16572e+07)
(-8.84507e+07 -0.0165539 -1.78407e-18 1.85201e+08 -4.2715e-09 -2.16572e+07)
(-8.84507e+07 -0.136637 -1.05591e-09 1.85201e+08 -2.13575e-09 -2.16572e+07)
(-8.84507e+07 0.0510535 -1.06327e-09 1.85201e+08 8.72833e-18 -2.16572e+07)
(-8.84507e+07 0.204013 7.36061e-12 1.85201e+08 2.13575e-09 -2.16572e+07)
(-8.84507e+07 -0.101117 3.17508e-09 1.85201e+08 -4.28132e-17 -2.16572e+07)
(-8.84507e+07 0.132026 1.47212e-11 1.85201e+08 -5.80027e-18 -2.16572e+07)
(-8.84507e+07 -0.126646 1.03382e-09 1.85201e+08 -4.2715e-09 -2.16572e+07)
(-8.84507e+07 0.0945445 -2.06765e-09 1.85201e+08 4.2715e-09 -2.16572e+07)
(-8.84507e+07 -0.148313 3.11619e-09 1.85201e+08 -4.93473e-17 -2.16572e+07)
(-8.84507e+07 0.128151 -3.13827e-09 1.85201e+08 -6.40725e-09 -2.16572e+07)
(-8.84507e+07 0.0103055 -1.47212e-11 1.85201e+08 4.2715e-09 -2.16572e+07)
(-8.84507e+07 -0.109226 7.36062e-12 1.85201e+08 2.13575e-09 -2.16572e+07)
(-8.84507e+07 0.0219943 1.06327e-09 1.85201e+08 4.2715e-09 -2.16572e+07)
(-8.84507e+07 -0.0612147 1.02646e-09 1.85201e+08 -6.40725e-09 -2.16572e+07)
(-8.84507e+07 0.0917769 5.88849e-11 1.85201e+08 -4.96992e-17 -2.16572e+07)
(-8.84507e+07 0.130412 1.0191e-09 1.85201e+08 4.2715e-09 -2.16572e+07)
(-8.84507e+07 -0.131384 -1.03382e-09 1.85201e+08 2.40902e-17 -2.16572e+07)
(-8.84507e+07 0.241602 2.09709e-09 1.85201e+08 1.38084e-17 -2.16572e+07)
(-8.84507e+07 -0.108815 1.61689e-18 1.85201e+08 -8.543e-09 -2.16572e+07)
(-8.84507e+07 0.124622 -2.08237e-09 1.85201e+08 4.2715e-09 -2.16572e+07)
(-8.84507e+07 -0.120093 -2.94425e-11 1.85201e+08 8.543e-09 -2.16572e+07)
(-8.84507e+07 -0.0350006 4.23834e-09 1.85201e+08 -4.2715e-09 -2.16572e+07)
(-8.84507e+07 -0.0370951 -1.04118e-09 1.85201e+08 -2.13575e-09 -2.16572e+07)
(-8.84507e+07 -0.172406 6.28677e-18 1.85201e+08 4.2715e-09 -2.16572e+07)
(-8.84507e+07 0.292925 1.04118e-09 1.85201e+08 -2.13575e-09 -2.16572e+07)
(-8.84507e+07 -0.0891193 -1.06327e-09 1.85201e+08 -8.543e-09 -2.16572e+07)
(-8.84507e+07 0.0550051 3.68031e-11 1.85201e+08 2.13575e-09 -2.16572e+07)
(-8.84507e+07 -0.158282 -1.08535e-09 1.85201e+08 6.40725e-09 -2.16572e+07)
(-8.84507e+07 0.137198 0 1.85201e+08 0 -2.16572e+07)
(-8.84507e+07 -0.0756617 -7.36062e-12 1.85201e+08 -2.13575e-09 -2.16572e+07)
(-8.84507e+07 -0.0346785 -7.36063e-12 1.85201e+08 -6.40725e-09 -2.16572e+07)
(-8.84507e+07 -0.106923 -2.08973e-09 1.85201e+08 2.13575e-09 -2.16572e+07)
(-8.84507e+07 0.253472 1.03382e-09 1.85201e+08 4.2715e-09 -2.16572e+07)
(-8.84507e+07 -0.0260249 -7.36062e-12 1.85201e+08 -6.40725e-09 -2.16572e+07)
(-8.84507e+07 -0.0678831 -2.09709e-09 1.85201e+08 -9.62466e-18 -2.16572e+07)
(-8.84507e+07 0.0416286 -1.47212e-11 1.85201e+08 4.2715e-09 -2.16572e+07)
(-8.71206e+07 -0.0521522 -1.06372e-09 1.82303e+08 1.44143e-18 -2.11039e+07)
(-8.71206e+07 0.0803954 -2.12214e-09 1.82303e+08 -4.16101e-09 -2.11039e+07)
(-8.71206e+07 -0.0808474 -7.85064e-13 1.82303e+08 1.37398e-17 -2.11039e+07)
(-8.71206e+07 0.103827 -7.16097e-12 1.82303e+08 6.24152e-09 -2.11039e+07)
(-8.71206e+07 -0.17239 -2.14627e-09 1.82303e+08 -4.16101e-09 -2.11039e+07)
(-8.71206e+07 0.117 1.07726e-09 1.82303e+08 -7.39565e-17 -2.11039e+07)
(-8.71206e+07 -0.0557661 -3.31562e-11 1.82303e+08 2.90111e-17 -2.11039e+07)
(-8.71206e+07 0.124399 2.33465e-11 1.82303e+08 2.28358e-17 -2.11039e+07)
(-8.71206e+07 0.0200345 -1.09236e-09 1.82303e+08 4.16101e-09 -2.11039e+07)
(-8.71206e+07 0.0427621 1.05126e-09 1.82303e+08 -2.08051e-09 -2.11039e+07)
(-8.71206e+07 -0.0740502 -1.96193e-11 1.82303e+08 -8.66082e-18 -2.11039e+07)
(-8.71206e+07 0.1018 3.19567e-09 1.82303e+08 4.16101e-09 -2.11039e+07)
(-8.71206e+07 -0.242561 -2.10252e-09 1.82303e+08 4.16101e-09 -2.11039e+07)
(-8.71206e+07 0.184866 -1.06823e-09 1.82303e+08 -4.16101e-09 -2.11039e+07)
(-8.71206e+07 -0.19366 -3.1429e-09 1.82303e+08 3.77844e-17 -2.11039e+07)
(-8.71206e+07 0.0603793 -1.86363e-12 1.82303e+08 2.08051e-09 -2.11039e+07)
(-8.71206e+07 -0.109808 -5.32428e-18 1.82303e+08 -4.16101e-09 -2.11039e+07)
(-8.71206e+07 -0.0296021 1.06107e-09 1.82303e+08 -2.08051e-09 -2.11039e+07)
(-8.71206e+07 -0.000373191 -1.07353e-09 1.82303e+08 4.83034e-18 -2.11039e+07)
(-8.71206e+07 -0.0224838 -2.12744e-09 1.82303e+08 1.47128e-17 -2.11039e+07)
(-8.71206e+07 0.106306 7.16097e-12 1.82303e+08 2.08051e-09 -2.11039e+07)
(-8.71206e+07 -0.143442 -2.12479e-09 1.82303e+08 2.08051e-09 -2.11039e+07)
(-8.71206e+07 0.181468 1.06372e-09 1.82303e+08 -1.38354e-17 -2.11039e+07)
(-8.71206e+07 -0.222322 1.05391e-09 1.82303e+08 3.36675e-18 -2.11039e+07)
(-8.71206e+07 0.14547 -1.07539e-09 1.82303e+08 -6.24152e-09 -2.11039e+07)
(-8.71206e+07 -0.200672 -1.04753e-09 1.82303e+08 -2.08051e-09 -2.11039e+07)
(-8.71206e+07 0.0496581 1.02978e-09 1.82303e+08 4.16101e-09 -2.11039e+07)
(-8.71206e+07 -0.0835051 -4.2281e-09 1.82303e+08 2.08051e-09 -2.11039e+07)
(-8.71206e+07 0.102381 -1.06107e-09 1.82303e+08 2.08051e-09 -2.11039e+07)
(-8.71206e+07 -0.141899 2.2268e-11 1.82303e+08 -2.08051e-09 -2.11039e+07)
(-8.71206e+07 0.219727 2.1293e-09 1.82303e+08 2.08051e-09 -2.11039e+07)
(-8.71206e+07 -0.143108 2.10596e-09 1.82303e+08 2.08051e-09 -2.11039e+07)
(-8.71206e+07 0.110663 2.41316e-11 1.82303e+08 5.4785e-18 -2.11039e+07)
(-8.71206e+07 -0.0722053 -1.16732e-11 1.82303e+08 -2.08051e-09 -2.11039e+07)
(-8.71206e+07 0.0414829 1.16733e-11 1.82303e+08 -2.08051e-09 -2.11039e+07)
(-8.71206e+07 -0.0924156 -4.51229e-12 1.82303e+08 2.65759e-19 -2.11039e+07)
(-8.71206e+07 0.0321009 7.16097e-12 1.82303e+08 -2.08051e-09 -2.11039e+07)
(-8.71206e+07 -0.0646545 -2.0935e-09 1.82303e+08 4.16101e-09 -2.11039e+07)
(-8.71206e+07 -0.0154032 -2.10252e-09 1.82303e+08 4.16101e-09 -2.11039e+07)
(-8.71206e+07 0.0798912 5.29737e-12 1.82303e+08 -4.16101e-09 -2.11039e+07)
(-8.71206e+07 -0.0937746 4.24958e-09 1.82303e+08 -4.16101e-09 -2.11039e+07)
(-8.71206e+07 0.034799 0 1.82303e+08 0 -2.11039e+07)
(-8.71206e+07 0.080246 2.12214e-09 1.82303e+08 4.16101e-09 -2.11039e+07)
(-8.71206e+07 -0.0145857 -2.14829e-11 1.82303e+08 2.08051e-09 -2.11039e+07)
(-8.71206e+07 0.030716 9.80964e-12 1.82303e+08 -4.16101e-09 -2.11039e+07)
(-8.71206e+07 -0.0191551 -1.06186e-09 1.82303e+08 2.08051e-09 -2.11039e+07)
(-8.71206e+07 0.131793 2.10596e-09 1.82303e+08 2.08051e-09 -2.11039e+07)
(-8.71206e+07 -0.112927 -9.80965e-12 1.82303e+08 -4.16101e-09 -2.11039e+07)
(-8.71206e+07 0.110778 -2.11312e-09 1.82303e+08 3.09174e-17 -2.11039e+07)
(-8.71206e+07 -0.122868 2.2268e-11 1.82303e+08 2.08051e-09 -2.11039e+07)
(-8.71206e+07 0.121754 -3.16173e-09 1.82303e+08 6.00771e-17 -2.11039e+07)
(-8.71206e+07 -0.0212108 -3.16889e-09 1.82303e+08 -2.08051e-09 -2.11039e+07)
(-8.71206e+07 0.0150602 -1.05205e-09 1.82303e+08 2.08051e-09 -2.11039e+07)
(-8.71206e+07 0.138164 -2.12214e-09 1.82303e+08 4.16101e-09 -2.11039e+07)
(-8.71206e+07 -0.144893 -1.88342e-11 1.82303e+08 -8.32202e-09 -2.11039e+07)
(-8.71206e+07 0.205904 2.13117e-09 1.82303e+08 -4.16101e-09 -2.11039e+07)
(-8.71206e+07 -0.0735111 -4.25488e-09 1.82303e+08 8.32202e-09 -2.11039e+07)
(-8.71206e+07 0.014774 1.04224e-09 1.82303e+08 2.08051e-09 -2.11039e+07)
(-8.71206e+07 -0.0704319 -4.22545e-09 1.82303e+08 -4.16101e-09 -2.11039e+07)
(-8.71206e+07 0.113909 2.12214e-09 1.82303e+08 -3.48712e-17 -2.11039e+07)
(-8.71206e+07 -0.0948975 -2.11763e-09 1.82303e+08 4.16101e-09 -2.11039e+07)
(-8.71206e+07 0.0928909 3.16703e-09 1.82303e+08 -8.84311e-17 -2.11039e+07)
(-8.71206e+07 -0.173312 -3.16173e-09 1.82303e+08 -4.16101e-09 -2.11039e+07)
(-8.71206e+07 0.0417389 1.05126e-09 1.82303e+08 -2.08051e-09 -2.11039e+07)
(-8.71206e+07 -0.192375 1.06823e-09 1.82303e+08 4.16101e-09 -2.11039e+07)
(-8.71206e+07 0.209675 4.22624e-09 1.82303e+08 -1.29464e-16 -2.11039e+07)
(-8.71206e+07 -0.245268 -1.04489e-09 1.82303e+08 -3.3487e-17 -2.11039e+07)
(-8.71206e+07 0.253008 -1.88342e-11 1.82303e+08 -6.68296e-19 -2.11039e+07)
(-8.71206e+07 -0.169959 -2.0988e-09 1.82303e+08 5.7619e-17 -2.11039e+07)
(-8.71206e+07 0.20311 -3.17341e-09 1.82303e+08 2.08051e-09 -2.11039e+07)
(-8.71206e+07 -0.0887237 -9.80964e-12 1.82303e+08 -4.16101e-09 -2.11039e+07)
(-8.71206e+07 0.0302514 -1.07088e-09 1.82303e+08 -6.24152e-09 -2.11039e+07)
(-8.71206e+07 -0.0277091 -2.10409e-09 1.82303e+08 4.16101e-09 -2.11039e+07)
(-8.71206e+07 -0.0350413 2.09164e-09 1.82303e+08 6.24152e-09 -2.11039e+07)
(-8.71206e+07 0.0054669 1.07088e-09 1.82303e+08 -2.08051e-09 -2.11039e+07)
(-8.71206e+07 -0.0397177 9.80966e-12 1.82303e+08 5.14492e-18 -2.11039e+07)
(-8.71206e+07 0.0197637 2.6487e-12 1.82303e+08 -2.08051e-09 -2.11039e+07)
(-8.71206e+07 0.0954336 -7.16096e-12 1.82303e+08 -6.24152e-09 -2.11039e+07)
(-8.71206e+07 -0.0636655 1.06294e-09 1.82303e+08 6.99112e-18 -2.11039e+07)
(-8.71206e+07 0.105315 2.11312e-09 1.82303e+08 4.16101e-09 -2.11039e+07)
(-8.71206e+07 -0.0835001 1.05391e-09 1.82303e+08 -9.07049e-18 -2.11039e+07)
(-8.71206e+07 0.0791043 -3.17154e-09 1.82303e+08 3.16983e-17 -2.11039e+07)
(-8.71206e+07 -0.086641 1.04145e-09 1.82303e+08 2.08051e-09 -2.11039e+07)
(-8.71206e+07 0.0752878 1.5107e-11 1.82303e+08 -5.81947e-18 -2.11039e+07)
(-8.71206e+07 -0.00729702 7.16097e-12 1.82303e+08 -2.08051e-09 -2.11039e+07)
(-8.71206e+07 -0.0420868 -1.06372e-09 1.82303e+08 3.75852e-18 -2.11039e+07)
(-8.71206e+07 0.0402659 -2.64868e-12 1.82303e+08 2.08051e-09 -2.11039e+07)
(-8.71206e+07 -0.0251967 1.02527e-09 1.82303e+08 -4.16101e-09 -2.11039e+07)
(-8.71206e+07 0.0349255 4.29658e-11 1.82303e+08 -2.75625e-17 -2.11039e+07)
(-8.71206e+07 0.0868317 1.03243e-09 1.82303e+08 6.24152e-09 -2.11039e+07)
(-8.71206e+07 -0.067685 -1.06107e-09 1.82303e+08 -2.08051e-09 -2.11039e+07)
(-8.71206e+07 0.147721 4.24242e-09 1.82303e+08 -2.08051e-09 -2.11039e+07)
(-8.71206e+07 -0.0855672 -1.06372e-09 1.82303e+08 4.83991e-18 -2.11039e+07)
(-8.71206e+07 0.0882039 -2.0935e-09 1.82303e+08 4.16101e-09 -2.11039e+07)
(-8.71206e+07 -0.0698853 1.02075e-09 1.82303e+08 -4.16101e-09 -2.11039e+07)
(-8.71206e+07 -0.0127974 2.13833e-09 1.82303e+08 -2.08051e-09 -2.11039e+07)
(-8.71206e+07 0.00904952 -1.16732e-11 1.82303e+08 6.24152e-09 -2.11039e+07)
(-8.71206e+07 -0.101309 0 1.82303e+08 0 -2.11039e+07)
(-8.71206e+07 0.141002 4.24507e-09 1.82303e+08 -2.46522e-17 -2.11039e+07)
(-8.71206e+07 -0.0822102 -1.16733e-11 1.82303e+08 -6.24152e-09 -2.11039e+07)
(-8.71206e+07 0.071579 -2.07731e-09 1.82303e+08 2.08051e-09 -2.11039e+07)
(-8.71206e+07 -0.092417 1.03773e-09 1.82303e+08 6.24152e-09 -2.11039e+07)
(-8.71206e+07 0.0686095 -1.05656e-09 1.82303e+08 -2.08051e-09 -2.11039e+07)
(-8.71206e+07 -0.0602056 -1.07088e-09 1.82303e+08 -2.08051e-09 -2.11039e+07)
(-8.71206e+07 0.029127 -1.05656e-09 1.82303e+08 -2.08051e-09 -2.11039e+07)
(-8.71206e+07 -0.0654418 -2.10782e-09 1.82303e+08 -7.32352e-18 -2.11039e+07)
(-8.71206e+07 0.111058 1.05391e-09 1.82303e+08 -1.4576e-17 -2.11039e+07)
(-8.71206e+07 -0.0229974 0 1.82303e+08 0 -2.11039e+07)
(-8.71206e+07 -0.0102426 -2.10782e-09 1.82303e+08 -6.09633e-18 -2.11039e+07)
(-8.71206e+07 0.0317339 0 1.82303e+08 0 -2.11039e+07)
(-8.50932e+07 -0.0334802 2.68463e-12 1.79134e+08 -2.02203e-09 -2.04092e+07)
(-8.50932e+07 0.0203272 1.38056e-11 1.79134e+08 -9.92149e-18 -2.04092e+07)
(-8.50932e+07 -0.0564679 -4.20105e-09 1.79134e+08 -1.02614e-17 -2.04092e+07)
(-8.50932e+07 0.0450472 -2.08729e-09 1.79134e+08 2.02203e-09 -2.04092e+07)
(-8.50932e+07 -0.00523001 3.14398e-09 1.79134e+08 -4.59382e-18 -2.04092e+07)
(-8.50932e+07 0.0625396 -2.07502e-09 1.79134e+08 -4.04405e-09 -2.04092e+07)
(-8.50932e+07 -0.0367783 -1.06359e-09 1.79134e+08 6.07424e-18 -2.04092e+07)
(-8.50932e+07 0.0157838 -2.07502e-09 1.79134e+08 4.04405e-09 -2.04092e+07)
(-8.50932e+07 -0.0202906 1.04288e-09 1.79134e+08 2.02203e-09 -2.04092e+07)
(-8.50932e+07 0.0419203 2.13139e-09 1.79134e+08 1.34681e-18 -2.04092e+07)
(-8.50932e+07 -0.0367258 -1.53391e-11 1.79134e+08 -6.06608e-09 -2.04092e+07)
(-8.50932e+07 0.0505799 2.22419e-11 1.79134e+08 -4.04405e-09 -2.04092e+07)
(-8.50932e+07 -0.0643708 2.08883e-09 1.79134e+08 8.0881e-09 -2.04092e+07)
(-8.50932e+07 0.0134901 -2.07084e-11 1.79134e+08 2.02203e-09 -2.04092e+07)
(-8.50932e+07 -0.102475 9.58741e-12 1.79134e+08 -4.04405e-09 -2.04092e+07)
(-8.50932e+07 0.0208611 2.10263e-09 1.79134e+08 -1.49829e-17 -2.04092e+07)
(-8.50932e+07 -0.0328664 1.0402e-09 1.79134e+08 -8.61956e-18 -2.04092e+07)
(-8.50932e+07 0.00154938 2.07084e-11 1.79134e+08 2.02203e-09 -2.04092e+07)
(-8.50932e+07 -0.0166976 5.36925e-12 1.79134e+08 4.04405e-09 -2.04092e+07)
(-8.50932e+07 -0.0534676 4.22137e-09 1.79134e+08 -4.04405e-09 -2.04092e+07)
(-8.50932e+07 0.0244567 2.76111e-11 1.79134e+08 1.99306e-17 -2.04092e+07)
(-8.50932e+07 -0.0522711 1.03598e-09 1.79134e+08 -2.93698e-17 -2.04092e+07)
(-8.50932e+07 0.0430756 3.17312e-09 1.79134e+08 -2.02203e-09 -2.04092e+07)
(-8.50932e+07 -0.0868972 1.0471e-09 1.79134e+08 2.02203e-09 -2.04092e+07)
(-8.50932e+07 0.0455937 -1.054e-09 1.79134e+08 7.45159e-18 -2.04092e+07)
(-8.50932e+07 -0.0545738 -2.07924e-09 1.79134e+08 -3.02475e-17 -2.04092e+07)
(-8.50932e+07 0.0346381 1.64902e-11 1.79134e+08 2.02203e-09 -2.04092e+07)
(-8.50932e+07 -0.0731711 5.36921e-12 1.79134e+08 1.0225e-17 -2.04092e+07)
(-8.50932e+07 0.0429912 1.0402e-09 1.79134e+08 -8.0881e-09 -2.04092e+07)
(-8.50932e+07 -0.053133 1.05975e-09 1.79134e+08 -2.02203e-09 -2.04092e+07)
(-8.50932e+07 0.0369338 -1.38056e-11 1.79134e+08 4.04405e-09 -2.04092e+07)
(-8.50932e+07 -0.0524194 -1.91748e-11 1.79134e+08 -1.47596e-17 -2.04092e+07)
(-8.50932e+07 0.0569977 1.05132e-09 1.79134e+08 2.02203e-09 -2.04092e+07)
(-8.50932e+07 -0.0481176 -1.64902e-11 1.79134e+08 2.02203e-09 -2.04092e+07)
(-8.50932e+07 0.0186913 -2.10532e-09 1.79134e+08 -2.02203e-09 -2.04092e+07)
(-8.50932e+07 -0.0290956 1.05132e-09 1.79134e+08 -2.02203e-09 -2.04092e+07)
(-8.50932e+07 0.0142111 0 1.79134e+08 0 -2.04092e+07)
(-8.50932e+07 -0.0102964 2.108e-09 1.79134e+08 -1.54331e-17 -2.04092e+07)
(-8.50932e+07 -0.0320925 2.08883e-09 1.79134e+08 -2.96053e-17 -2.04092e+07)
(-8.50932e+07 -0.00473165 -3.29804e-11 1.79134e+08 -4.04405e-09 -2.04092e+07)
(-8.50932e+07 0.0270698 2.11644e-09 1.79134e+08 -4.11263e-17 -2.04092e+07)
(-8.50932e+07 0.021375 -1.38056e-11 1.79134e+08 4.04405e-09 -2.04092e+07)
(-8.50932e+07 -0.0247019 1.38056e-11 1.79134e+08 4.04405e-09 -2.04092e+07)
(-8.50932e+07 0.00170262 2.08039e-09 1.79134e+08 -8.23275e-17 -2.04092e+07)
(-8.50932e+07 0.0631375 -1.02907e-09 1.79134e+08 2.02203e-09 -2.04092e+07)
(-8.50932e+07 -0.0224265 -1.26545e-11 1.79134e+08 2.70105e-17 -2.04092e+07)
(-8.50932e+07 0.0173383 2.12334e-09 1.79134e+08 -2.02203e-09 -2.04092e+07)
(-8.50932e+07 -0.0252921 -1.05822e-09 1.79134e+08 4.04405e-09 -2.04092e+07)
(-8.50932e+07 0.0781584 -8.43634e-12 1.79134e+08 -8.0881e-09 -2.04092e+07)
(-8.50932e+07 -0.0217243 -1.03444e-09 1.79134e+08 -2.02203e-09 -2.04092e+07)
(-8.50932e+07 0.0284694 1.03329e-09 1.79134e+08 6.06608e-09 -2.04092e+07)
(-8.50932e+07 -0.00151121 1.0609e-09 1.79134e+08 2.02203e-09 -2.04092e+07)
(-8.50932e+07 0.00128639 1.2272e-11 1.79134e+08 2.02203e-09 -2.04092e+07)
(-8.50932e+07 0.0603635 -6.90278e-12 1.79134e+08 -2.02203e-09 -2.04092e+07)
(-8.50932e+07 -0.00990195 2.09841e-09 1.79134e+08 -4.04405e-09 -2.04092e+07)
(-8.50932e+07 0.0233406 -2.05431e-09 1.79134e+08 6.06608e-09 -2.04092e+07)
(-8.50932e+07 -0.0450207 -9.96989e-12 1.79134e+08 2.02203e-09 -2.04092e+07)
(-8.50932e+07 0.0827218 2.12603e-09 1.79134e+08 -4.04405e-09 -2.04092e+07)
(-8.50932e+07 -0.0169123 -1.06512e-09 1.79134e+08 -2.02203e-09 -2.04092e+07)
(-8.50932e+07 -0.00187735 2.76111e-11 1.79134e+08 -6.92548e-17 -2.04092e+07)
(-8.50932e+07 -0.0790792 1.03598e-09 1.79134e+08 -8.00318e-17 -2.04092e+07)
(-8.50932e+07 0.0196336 1.53355e-12 1.79134e+08 -2.02203e-09 -2.04092e+07)
(-8.50932e+07 -0.0437998 1.0471e-09 1.79134e+08 2.02203e-09 -2.04092e+07)
(-8.50932e+07 0.0603282 2.68463e-12 1.79134e+08 -2.02203e-09 -2.04092e+07)
(-8.50932e+07 -0.0946713 -6.90278e-12 1.79134e+08 -6.06608e-09 -2.04092e+07)
(-8.50932e+07 0.0400624 2.11107e-09 1.79134e+08 4.04405e-09 -2.04092e+07)
(-8.50932e+07 -0.0748476 -1.53391e-11 1.79134e+08 6.06608e-09 -2.04092e+07)
(-8.50932e+07 0.0916158 2.11222e-09 1.79134e+08 -1.76871e-17 -2.04092e+07)
(-8.50932e+07 -0.0814243 -2.10263e-09 1.79134e+08 2.56988e-17 -2.04092e+07)
(-8.50932e+07 0.0433596 2.11222e-09 1.79134e+08 -5.61944e-17 -2.04092e+07)
(-8.50932e+07 -0.0366853 1.04978e-09 1.79134e+08 -3.22778e-17 -2.04092e+07)
(-8.50932e+07 0.0417351 -2.08461e-09 1.79134e+08 2.19961e-17 -2.04092e+07)
(-8.50932e+07 -0.0106805 -2.09036e-09 1.79134e+08 -2.02203e-09 -2.04092e+07)
(-8.50932e+07 -0.0164526 2.10263e-09 1.79134e+08 -4.04405e-09 -2.04092e+07)
(-8.50932e+07 0.0119657 1.04441e-09 1.79134e+08 -3.02161e-18 -2.04092e+07)
(-8.50932e+07 0.0196121 -1.06359e-09 1.79134e+08 1.34253e-17 -2.04092e+07)
(-8.50932e+07 -0.014007 1.04441e-09 1.79134e+08 -1.24777e-17 -2.04092e+07)
(-8.50932e+07 0.000776416 -2.108e-09 1.79134e+08 2.29498e-17 -2.04092e+07)
(-8.50932e+07 -0.0158478 -2.10263e-09 1.79134e+08 -4.04405e-09 -2.04092e+07)
(-8.50932e+07 0.0465276 8.43633e-12 1.79134e+08 5.8371e-17 -2.04092e+07)
(-8.50932e+07 -0.0214199 -6.90278e-12 1.79134e+08 6.06608e-09 -2.04092e+07)
(-8.50932e+07 0.0426701 9.5874e-12 1.79134e+08 4.04405e-09 -2.04092e+07)
(-8.50932e+07 -0.0163642 -1.53391e-11 1.79134e+08 -6.06608e-09 -2.04092e+07)
(-8.50932e+07 0.00662901 1.06666e-09 1.79134e+08 -4.04405e-09 -2.04092e+07)
(-8.50932e+07 -0.0132786 -6.90278e-12 1.79134e+08 6.06608e-09 -2.04092e+07)
(-8.50932e+07 0.0178867 -2.10532e-09 1.79134e+08 2.02203e-09 -2.04092e+07)
(-8.50932e+07 0.0278393 -2.09841e-09 1.79134e+08 5.99968e-18 -2.04092e+07)
(-8.50932e+07 0.0111394 1.03329e-09 1.79134e+08 -6.06608e-09 -2.04092e+07)
(-8.50932e+07 -0.00801932 -2.06658e-09 1.79134e+08 3.03871e-17 -2.04092e+07)
(-8.50932e+07 0.0282628 1.03329e-09 1.79134e+08 6.06608e-09 -2.04092e+07)
(-8.50932e+07 -0.000646012 1.03329e-09 1.79134e+08 -6.06608e-09 -2.04092e+07)
(-8.50932e+07 0.0456698 2.22419e-11 1.79134e+08 -3.70827e-17 -2.04092e+07)
(-8.50932e+07 -0.0354023 -2.12602e-09 1.79134e+08 4.04405e-09 -2.04092e+07)
(-8.50932e+07 0.0290678 1.38056e-11 1.79134e+08 -2.12513e-17 -2.04092e+07)
(-8.50932e+07 -0.0123946 2.08461e-09 1.79134e+08 1.74789e-18 -2.04092e+07)
(-8.50932e+07 0.00219254 -2.08192e-09 1.79134e+08 -2.02203e-09 -2.04092e+07)
(-8.50932e+07 0.0271376 -1.05669e-09 1.79134e+08 2.02203e-09 -2.04092e+07)
(-8.50932e+07 -0.0183052 1.02639e-09 1.79134e+08 -4.04405e-09 -2.04092e+07)
(-8.50932e+07 0.00265283 1.05975e-09 1.79134e+08 -2.02203e-09 -2.04092e+07)
(-8.50932e+07 -0.0530558 1.03061e-09 1.79134e+08 4.04405e-09 -2.04092e+07)
(-8.50932e+07 0.0521758 -2.08883e-09 1.79134e+08 9.55604e-18 -2.04092e+07)
(-8.50932e+07 -0.0240029 2.10263e-09 1.79134e+08 4.04405e-09 -2.04092e+07)
(-8.50932e+07 0.0101392 1.04978e-09 1.79134e+08 4.04405e-09 -2.04092e+07)
(-8.50932e+07 -0.0301446 1.05669e-09 1.79134e+08 -2.02203e-09 -2.04092e+07)
(-8.50932e+07 0.0542196 -2.09841e-09 1.79134e+08 -4.04405e-09 -2.04092e+07)
(-8.50932e+07 -0.0196091 6.90278e-12 1.79134e+08 -2.02203e-09 -2.04092e+07)
(-8.50932e+07 -0.00829372 -2.108e-09 1.79134e+08 5.04821e-18 -2.04092e+07)
(-8.50932e+07 -0.0128965 0 1.79134e+08 0 -2.04092e+07)
(-8.50932e+07 0.0250693 0 1.79134e+08 0 -2.04092e+07)
(-8.50932e+07 0.0164093 0 1.79134e+08 0 -2.04092e+07)
(-8.35278e+07 -0.0261526 -1.0593e-09 1.76256e+08 -4.77551e-18 -1.98336e+07)
(-8.35278e+07 0.000714153 1.33831e-11 1.76256e+08 3.93746e-09 -1.98336e+07)
(-8.35278e+07 -0.0436308 1.04592e-09 1.76256e+08 3.93746e-09 -1.98336e+07)
(-8.35278e+07 0.0331028 -7.92333e-12 1.76256e+08 -7.87491e-09 -1.98336e+07)
(-8.35278e+07 0.0373177 2.10223e-09 1.76256e+08 -3.93746e-09 -1.98336e+07)
(-8.35278e+07 0.0450595 -2.09977e-09 1.76256e+08 7.87491e-09 -1.98336e+07)
(-8.35278e+07 -0.0345074 -7.92333e-12 1.76256e+08 -3.42476e-18 -1.98336e+07)
(-8.35278e+07 -0.0220865 2.11315e-09 1.76256e+08 -3.93746e-09 -1.98336e+07)
(-8.35278e+07 -0.0396083 -3.22259e-11 1.76256e+08 -3.93746e-09 -1.98336e+07)
(-8.35278e+07 0.0331243 1.04839e-09 1.76256e+08 2.02065e-17 -1.98336e+07)
(-8.35278e+07 -0.0233886 4.16731e-09 1.76256e+08 3.93746e-09 -1.98336e+07)
(-8.35278e+07 0.0408432 -2.08092e-09 1.76256e+08 -3.88819e-18 -1.98336e+07)
(-8.35278e+07 -0.0123696 1.33831e-11 1.76256e+08 3.93746e-09 -1.98336e+07)
(-8.35278e+07 -0.0207922 -2.67662e-11 1.76256e+08 3.35501e-17 -1.98336e+07)
(-8.35278e+07 -0.069114 -1.04592e-09 1.76256e+08 -3.93746e-09 -1.98336e+07)
(-8.35278e+07 0.0112417 0 1.76256e+08 0 -1.98336e+07)
(-8.35278e+07 -0.00498496 -1.0593e-09 1.76256e+08 2.05405e-18 -1.98336e+07)
(-8.35278e+07 0.01018 0 1.76256e+08 0 -1.98336e+07)
(-8.35278e+07 -0.0224708 2.05416e-09 1.76256e+08 -7.87491e-09 -1.98336e+07)
(-8.35278e+07 -0.0602122 2.09677e-09 1.76256e+08 -4.31297e-17 -1.98336e+07)
(-8.35278e+07 -0.000885349 -2.12653e-09 1.76256e+08 7.87491e-09 -1.98336e+07)
(-8.35278e+07 -0.0312706 -3.22259e-11 1.76256e+08 -3.93746e-09 -1.98336e+07)
(-8.35278e+07 0.00211049 -2.09184e-09 1.76256e+08 4.12498e-17 -1.98336e+07)
(-8.35278e+07 -0.0429063 -1.0593e-09 1.76256e+08 7.87491e-09 -1.98336e+07)
(-8.35278e+07 0.0198537 1.03254e-09 1.76256e+08 9.33709e-18 -1.98336e+07)
(-8.35278e+07 -0.0109508 1.05385e-09 1.76256e+08 -3.93746e-09 -1.98336e+07)
(-8.35278e+07 0.032236 1.04046e-09 1.76256e+08 -5.50925e-18 -1.98336e+07)
(-8.35278e+07 -0.0600421 2.08092e-09 1.76256e+08 -7.93409e-18 -1.98336e+07)
(-8.35278e+07 0.0250937 -1.0593e-09 1.76256e+08 1.82354e-17 -1.98336e+07)
(-8.35278e+07 -0.0295158 1.88428e-11 1.76256e+08 3.99448e-18 -1.98336e+07)
(-8.35278e+07 -0.0203752 1.33831e-11 1.76256e+08 3.93746e-09 -1.98336e+07)
(-8.35278e+07 -0.0287746 -7.92334e-12 1.76256e+08 9.30133e-18 -1.98336e+07)
(-8.35278e+07 0.033406 2.67662e-11 1.76256e+08 -3.81047e-17 -1.98336e+07)
(-8.35278e+07 -0.0333011 -1.05385e-09 1.76256e+08 3.93746e-09 -1.98336e+07)
(-8.35278e+07 0.00828124 1.04592e-09 1.76256e+08 -3.93746e-09 -1.98336e+07)
(-8.35278e+07 -0.00676217 1.33831e-11 1.76256e+08 -3.93746e-09 -1.98336e+07)
(-8.35278e+07 0.0121746 -1.33831e-11 1.76256e+08 -3.93746e-09 -1.98336e+07)
(-8.35278e+07 0.00319504 7.92333e-12 1.76256e+08 -1.47958e-17 -1.98336e+07)
(-8.35278e+07 -0.031297 -2.09977e-09 1.76256e+08 7.87491e-09 -1.98336e+07)
(-8.35278e+07 -0.0192583 -2.13064e-11 1.76256e+08 -3.93746e-09 -1.98336e+07)
(-8.35278e+07 0.0500679 -2.05962e-09 1.76256e+08 -3.93746e-09 -1.98336e+07)
(-8.35278e+07 0.0137903 -1.33831e-11 1.76256e+08 3.93746e-09 -1.98336e+07)
(-8.35278e+07 -0.0530741 0 1.76256e+08 0 -1.98336e+07)
(-8.35278e+07 0.0109991 2.09431e-09 1.76256e+08 3.93746e-09 -1.98336e+07)
(-8.35278e+07 0.065776 -7.92333e-12 1.76256e+08 9.01948e-18 -1.98336e+07)
(-8.35278e+07 -0.0217797 5.23454e-09 1.76256e+08 -3.93746e-09 -1.98336e+07)
(-8.35278e+07 -0.0156364 1.33831e-11 1.76256e+08 3.93746e-09 -1.98336e+07)
(-8.35278e+07 0.00704614 2.073e-09 1.76256e+08 2.91885e-18 -1.98336e+07)
(-8.35278e+07 0.065086 2.10769e-09 1.76256e+08 -1.66866e-17 -1.98336e+07)
(-8.35278e+07 0.00735215 -2.08885e-09 1.76256e+08 1.9671e-17 -1.98336e+07)
(-8.35278e+07 0.00584135 1.05385e-09 1.76256e+08 -3.93746e-09 -1.98336e+07)
(-8.35278e+07 -0.000528967 1.04046e-09 1.76256e+08 -2.2294e-17 -1.98336e+07)
(-8.35278e+07 -0.00602718 -5.45974e-12 1.76256e+08 3.93746e-09 -1.98336e+07)
(-8.35278e+07 0.0328746 2.073e-09 1.76256e+08 -8.44832e-19 -1.98336e+07)
(-8.35278e+07 0.0195725 1.05385e-09 1.76256e+08 -3.93746e-09 -1.98336e+07)
(-8.35278e+07 -0.0252688 0 1.76256e+08 0 -1.98336e+07)
(-8.35278e+07 -0.0299048 4.16185e-09 1.76256e+08 -4.92113e-17 -1.98336e+07)
(-8.35278e+07 0.0906106 1.05385e-09 1.76256e+08 3.93746e-09 -1.98336e+07)
(-8.35278e+07 0.00470584 2.073e-09 1.76256e+08 1.07012e-17 -1.98336e+07)
(-8.35278e+07 -0.0329452 1.33831e-11 1.76256e+08 -3.93746e-09 -1.98336e+07)
(-8.35278e+07 -0.063979 2.09431e-09 1.76256e+08 3.93746e-09 -1.98336e+07)